768
Lattice="38.16606883306081 0.7708101007676014 0.3666927628512125 -0.3296249581406084 22.360322942442707 0.08526197331993467 -0.1800967783537251 -0.06462717078727989 19.468533293292147" Properties=species:S:1:pos:R:3:forces:R:3:momenta:R:3 pbc="T T T"
I       16.54859679       5.97394065       3.69162585      -0.08190441      -0.02897525       0.11830686      -0.17579735       0.03167284      -1.09136457
I       17.18960706       9.71037211       1.43806277      -0.30078911       0.30055899      -0.11658602      -2.13957071       0.72784177       0.31421680
I        7.37204205      11.27435263       3.71075062      -0.00737296       0.08949957      -0.12895938       0.92411578       0.92587181       0.49375468
I        6.69474615       4.10443527       0.96354787       0.22633363       0.09275305       0.24671885      -0.96979492       1.59650142       0.95626790
I       14.99017403       2.45517148       1.65967063      -0.05215947      -0.11833319      -0.23255114       1.10881082      -0.01790100      -2.01989459
I       -0.17344766      12.97829971       3.65799600      -0.36837242      -0.13508506       0.02423275       0.99868388      -0.48054215       0.39540609
I        9.24742694       7.75964718       1.12754129       0.09592077       0.18158348      -0.04553304       0.33051197       1.20223848       1.30409248
I        5.11398526       7.59418282       3.70909363       0.07447184      -0.06745292      -0.04767128       0.53419455      -1.30494370      -0.85630674
I        1.52590959       5.35864962       1.33062886      -0.11427352       0.02151130      -0.17140126      -0.51107826       1.35997334       1.54027305
I       12.91874431      10.10403230       4.00733413       0.35837057      -0.05876378      -0.03451473      -1.28284657      -0.95222465      -0.15971938
I        3.49947967      11.05742411       1.11268958       0.31112480       0.01480098       0.00450389      -0.45479189      -0.55080418       2.87828454
I       10.69612567       4.14280827       3.71385824       0.21084381       0.17961089      -0.01302880      -1.85296740       1.78741807       0.60773202
H        3.99951775       4.36699418       3.08628091      -0.02460947      -0.02260401      -0.04023873      -0.02971915      -0.04056874       0.11372698
H        9.62138676      11.14239500       1.94206155       0.03485273      -0.15535189       0.33526776      -0.07034797       0.09731764      -0.09594961
H        1.94288381       8.86157190       4.15567077       0.01529446       0.29127829      -0.32697592      -0.27051780       0.00526512      -0.01673219
H       13.92570451       5.89969063       2.44519663      -0.03047269       0.00464468       0.49121281      -0.00232938       0.12937806      -0.10207402
H        2.55292096       3.35440464       3.57392934      -0.33700782      -0.33944000      -0.04849441       0.13677052       0.05966652      -0.04534032
H       10.67837665      11.58516654       0.17317855      -0.24992412       0.15047568       0.13780741       0.02211107       0.07015270       0.06062716
H        0.82848070       9.73874387       2.94862414      -0.04461113      -0.45226311      -0.56674377       0.16481704      -0.25080350      -0.07668205
H       12.23728627       6.69950647       1.98363311       0.37030995      -0.06870896       0.01867996       0.32934815       0.00189897       0.16249027
H        3.68205527       4.00463197       4.85745161       0.37729738      -0.54178026      -0.16275355      -0.12395512       0.17218278       0.14914110
H       11.48029443      12.14051379       1.97874764       0.12813936       0.27778492       0.10255360       0.07431344      -0.12184461      -0.09104787
H        0.33845157       9.61767682       4.64417441      -0.13268577       0.00993200       0.55408122       0.08324782       0.00705126       0.00648622
H       13.46425456       6.08060167       0.68877909      -0.37829502       0.25652954       0.41908203      -0.01951501      -0.00975406       0.05592989
H        4.11292879       1.56865569       4.34887878       0.24754814      -0.22727976       0.04663629      -0.04579839       0.01460414       0.03598133
H       10.04906994      13.86198408       0.37474777       0.32372449      -0.14434139      -0.13075878      -0.06169012       0.12548064      -0.02126353
H        0.30570842       7.12024674       4.43416372       0.27705638      -0.12524171      -0.00558730      -0.07071207       0.10516832      -0.03548294
H       13.87618436       8.50425108       2.36252368       0.24464343      -0.02240613       0.05163275      -0.14139069      -0.00208301      -0.07002045
H        5.46679547       2.40779197       3.69618620      -0.78077756      -0.07838525       0.14512260       0.00600903      -0.11853532      -0.11233492
H        9.76820564      13.86781658       1.99614373      -0.49405193      -0.49185242       0.06846472      -0.03621587      -0.00020888      -0.18590690
H        0.64846749       7.22021237       2.76986225       0.12509701      -0.52465174      -0.26575783       0.27415889       0.04656331       0.13943647
H       13.73614198       8.43914366       0.69917976      -0.18719483       0.00923499      -0.15741200      -0.03373791      -0.00735564      -0.07383846
H        4.17073578       1.83445202       2.66513962       0.20167945       0.15345703       0.52638260       0.08879160       0.04454909      -0.08158401
H        8.62164341      13.16116039       0.85911672      -0.95750156      -0.49395122       0.44641648      -0.03964046       0.19749449      -0.01455627
H       37.32775949       8.51508827       3.75284899      -0.17188527       0.30638368      -0.13385389       0.07104845       0.04895888      -0.05987976
H       15.05585872       7.70665762       1.40522360       0.40860156       0.23657259       0.27118375       0.02281687      -0.04781360       0.02692525
C        3.61513634       3.57892322       3.80899087       0.78699132       0.24203495      -0.17457574       0.36604006       0.18727286       0.27189366
C       10.40481539      11.94376576       1.33329523      -0.32440385       0.03859926      -0.49830095      -0.02176054      -0.15269900       0.13046545
C        0.85971131       9.06082726       3.81786485       0.82896587       0.41164389       0.71069638       0.01848716       0.03642386       0.02762844
C       13.35524986       6.57261635       1.70082954      -0.51506747      -0.77363135      -1.29192613       0.23431175      -0.39309937      -0.43336055
Pb      36.98802406       4.40158851       1.48810458       0.02759724       0.20913672       0.17027484       1.05402196       0.80162169      -0.68228795
Pb      15.74920255      11.59232756       3.82033767       0.05073257       0.06310280       0.09390226      -0.14522310      -0.51922608      -0.06903642
Pb       6.31458581       9.39924940       1.29708206      -0.41359523       0.35824101      -0.03376286       2.85411661       1.61923729      -1.44223101
Pb       8.09008985       5.85295000       3.64554916      -0.25234135      -0.21091603       0.03429594       0.16996437      -0.91441890      -0.76770490
N        4.41459550       2.28077503       3.62316755      -0.30086902       0.60686381      -0.32306934      -0.22341821      -0.36911718       0.40454199
N        9.63500251      13.24016636       1.15442619       1.49867993       0.58155506      -0.35195182      -0.27389888       0.78481406      -0.57034585
N        0.21111216       7.73382133       3.58937474      -0.75247560       0.23189749      -0.03555898       0.51000976      -0.28650313       0.24543580
N       14.04399511       7.87753743       1.54258376       0.18366556       0.01153202       0.20083580      -0.18071922       0.14299425      -0.18548216
I       16.30139276       5.65874759       8.69157120       0.00314898       0.15419844      -0.02327569      -0.74865169      -2.49158316      -0.58472336
I       17.07510844       9.98151555       6.50831358       0.08156375      -0.14985549      -0.09639040      -1.09745946      -1.00569816       2.75491148
I        7.20902712      11.49398502       8.55484483       0.13777709      -0.16149244       0.09813488      -0.27325951      -0.11845057       1.08203651
I        7.02373176       3.88259883       5.77689636       0.06132932       0.19107737       0.38376833       0.30114956       1.01509874      -0.33256913
I       14.59050406       2.28709036       6.19853647       0.32079494       0.00740920      -0.06126680       0.71645716       0.06186648      -0.88417410
I       37.74750720      13.85347805       8.84229246       0.12013410      -0.21249281      -0.10361717      -1.16319187       0.01927031      -0.10638745
I        9.07233782       7.77584732       6.01708848       0.07285096       0.09609341      -0.02568283       0.20230935      -0.44200378       2.33835919
I        5.21898421       7.44748334       8.41704614       0.16093298      -0.10601460       0.18181802       0.40131352      -0.69795187       1.82166121
I        1.11576783       5.51365443       5.98144465      -0.10325814      -0.02291077       0.25725368       0.09506062       1.02532280      -1.21686451
I       13.23288911       9.87738321       8.72667020      -0.07030852       0.28533816      -0.18886494       1.39394692       0.47850546       0.66458811
I        3.30411809      11.02416916       6.09791391       0.18866076       0.03495208       0.06938211       1.31227245      -3.15352395      -0.56928644
I       11.11867455       4.17801327       8.58460948      -0.28402575       0.33615914      -0.06600009      -1.86690055      -1.24544342      -0.60819246
H        2.67472491       3.35959538       7.94903659      -0.00981536      -0.46500835       0.07703039       0.10933849      -0.07798591      -0.03310077
H       10.25906781      11.03531607       7.12706866      -0.13638350       0.67206822      -1.09263808      -0.01674411      -0.08358908       0.13929675
H        0.79790103       9.50980382       8.05432695       0.37492528      -0.04587838       0.92088007      -0.05554535      -0.17927847      -0.01961860
H       13.33631064       6.04355995       5.33400699      -0.07987634      -0.08853665      -0.04927689      -0.09553933       0.04304003      -0.03848859
H        3.76538027       4.13895879       9.13055375       0.13057743       0.54684293       0.28033972      -0.06010239      -0.02069925      -0.09298357
H       10.28275475      11.10206860       5.28516293       0.16312494       0.67111193       0.77973331       0.03606351      -0.04591964       0.12579887
H        1.08830428       9.21862361       9.91940536      -0.18944835      -0.00260743      -0.30841445      -0.03907914       0.21184299      -0.11573365
H       13.20332922       5.95738438       7.09599230       0.46118637       0.18277851       0.42644512      -0.07363319      -0.01445200       0.02191162
H        4.15667949       4.11479084       7.35598574       0.47871982       1.11254264      -1.15691490      -0.25545182       0.03673739       0.02099619
H       11.62296074      11.81762944       6.34300917       0.58897856       0.50279878      -0.38800449       0.07712712       0.06035865      -0.09905589
H        2.11266625       8.34403549       8.69310554      -0.15237264      -0.07049728      -0.19743058      -0.13931186       0.05157076      -0.01685233
H       12.25702928       7.24622456       6.20495640       0.41368750       0.02172523      -0.12341716       0.02620379      -0.03576588       0.03394435
H        5.57778380       2.61696727       8.60078933       0.67473639      -0.07435778       0.07885292       0.03493715      -0.12666277      -0.12248196
H       10.10742206      13.56102386       7.13676679      -0.00452843      -0.15988879      -0.39867062      -0.24425512       0.04528719       0.00328324
H        0.48204644       6.79473463       9.31398085       0.06168592      -0.33728525       0.47986023       0.08600964      -0.22748276       0.04564628
H       14.19817421       8.39059393       6.96306059       0.03584432       0.27427632       0.58995030      -0.19925530       0.04625543      -0.19784211
H        4.53859982       1.71488291       7.62223332       0.01599305      -0.37174050      -0.92124228      -0.09340086       0.17879841      -0.28574811
H        8.74337153      12.98703341       6.31944707       0.12527893      -0.44551643      -0.15242992       0.06478579      -0.13397510       0.16884541
H       -0.08719409       7.30838577       7.66737954       0.15755693      -0.18969955      -0.23096150       0.03575874       0.19894747       0.06898302
H       14.34781293       8.22131213       5.32899218       0.69260194      -0.15881508       0.32691549       0.12743398      -0.01883126      -0.00047116
H        4.21279870       1.78947983       9.21267755       0.30914682      -0.07991204       0.34083309       0.07903179      -0.09350657       0.05069203
H       10.05888264      13.65878535       5.46128806      -0.14010032      -0.53168032       0.47406368      -0.10605627       0.00146336      -0.00704586
H       37.28174641       8.79476618       9.57385446      -0.76636500       0.20527563      -0.13233708       0.04167048       0.10796991       0.00105710
H       15.35558245       7.19793044       6.45969101      -0.00994048       0.20419975      -0.40787750      -0.08876293      -0.03733471       0.09202183
C        3.74519928       3.58975192       8.18758910      -0.39040459      -1.02524277       0.76622736      -0.46173922      -0.36476911      -0.23494493
C       10.54578228      11.66417672       6.22425073      -1.57711433      -1.14185249       0.66415175      -0.28462933      -0.23917470      -0.31580422
C        1.09379433       8.77726945       8.86786888      -0.24749615       0.08804584      -0.91380062      -0.63784274      -0.45697166       0.57816539
C       13.24067015       6.66851604       6.23650219      -0.51986137       0.01735724      -0.61673915       0.11073707      -0.32960319      -0.03643608
Pb      36.76546814       4.44294133       6.20858396      -0.05065133       0.09868613       0.08883866      -1.41634358      -0.13272919      -3.79632865
Pb      15.86446804      11.75396267       8.60831687      -0.24447407      -0.10153275       0.26357855      -3.49333080      -1.23619863       1.94314201
Pb       6.10983425       9.53085996       6.20341557      -0.12845264       0.12748014      -0.17989705       1.57529082       1.91856802      -2.55639436
Pb       8.29697193       5.90327860       8.56822158      -0.15272628      -0.46745468      -0.32487449       1.11596567      -1.49287777       1.41910843
N        4.59886441       2.36478951       8.40727787      -1.37224289       0.18907181       0.50478235      -0.10249850      -0.12133285      -0.14232544
N        9.80577908      13.00488883       6.27400402       0.86732195       0.40630445       0.09436296      -0.37969661      -0.31698741       0.04491026
N        0.07271720       7.66361338       8.73528032       0.88280845       0.19370777       0.30098756      -0.67318387       0.84537485      -0.07737651
N       14.41345891       7.67286519       6.23690773      -1.08682171      -0.45903173      -0.16848976       0.03884855       0.36517267       0.50000817
I       16.45854840       5.94162706      13.42589250      -0.08190441      -0.02897525       0.11830686      -0.17579735       0.03167284      -1.09136457
I       17.09955867       9.67805852      11.17232942      -0.30078911       0.30055899      -0.11658602      -2.13957071       0.72784177       0.31421680
I        7.28199366      11.24203904      13.44501727      -0.00737296       0.08949957      -0.12895938       0.92411578       0.92587181       0.49375468
I        6.60469776       4.07212168      10.69781452       0.22633363       0.09275305       0.24671885      -0.96979492       1.59650142       0.95626790
I       14.90012564       2.42285789      11.39393728      -0.05215947      -0.11833319      -0.23255114       1.10881082      -0.01790100      -2.01989459
I       -0.26349605      12.94598612      13.39226265      -0.36837242      -0.13508506       0.02423275       0.99868388      -0.48054215       0.39540609
I        9.15737855       7.72733359      10.86180794       0.09592077       0.18158348      -0.04553304       0.33051197       1.20223848       1.30409248
I        5.02393687       7.56186923      13.44336028       0.07447184      -0.06745292      -0.04767128       0.53419455      -1.30494370      -0.85630674
I        1.43586120       5.32633603      11.06489551      -0.11427352       0.02151130      -0.17140126      -0.51107826       1.35997334       1.54027305
I       12.82869592      10.07171871      13.74160078       0.35837057      -0.05876378      -0.03451473      -1.28284657      -0.95222465      -0.15971938
I        3.40943128      11.02511052      10.84695623       0.31112480       0.01480098       0.00450389      -0.45479189      -0.55080418       2.87828454
I       10.60607728       4.11049468      13.44812489       0.21084381       0.17961089      -0.01302880      -1.85296740       1.78741807       0.60773202
H        3.90946936       4.33468059      12.82054756      -0.02460947      -0.02260401      -0.04023873      -0.02971915      -0.04056874       0.11372698
H        9.53133837      11.11008141      11.67632820       0.03485273      -0.15535189       0.33526776      -0.07034797       0.09731764      -0.09594961
H        1.85283542       8.82925831      13.88993742       0.01529446       0.29127829      -0.32697592      -0.27051780       0.00526512      -0.01673219
H       13.83565612       5.86737704      12.17946328      -0.03047269       0.00464468       0.49121281      -0.00232938       0.12937806      -0.10207402
H        2.46287257       3.32209105      13.30819599      -0.33700782      -0.33944000      -0.04849441       0.13677052       0.05966652      -0.04534032
H       10.58832826      11.55285295       9.90744520      -0.24992412       0.15047568       0.13780741       0.02211107       0.07015270       0.06062716
H        0.73843231       9.70643028      12.68289079      -0.04461113      -0.45226311      -0.56674377       0.16481704      -0.25080350      -0.07668205
H       12.14723788       6.66719288      11.71789976       0.37030995      -0.06870896       0.01867996       0.32934815       0.00189897       0.16249027
H        3.59200688       3.97231838      14.59171826       0.37729738      -0.54178026      -0.16275355      -0.12395512       0.17218278       0.14914110
H       11.39024604      12.10820020      11.71301429       0.12813936       0.27778492       0.10255360       0.07431344      -0.12184461      -0.09104787
H        0.24840318       9.58536323      14.37844106      -0.13268577       0.00993200       0.55408122       0.08324782       0.00705126       0.00648622
H       13.37420617       6.04828808      10.42304574      -0.37829502       0.25652954       0.41908203      -0.01951501      -0.00975406       0.05592989
H        4.02288040       1.53634210      14.08314543       0.24754814      -0.22727976       0.04663629      -0.04579839       0.01460414       0.03598133
H        9.95902155      13.82967049      10.10901442       0.32372449      -0.14434139      -0.13075878      -0.06169012       0.12548064      -0.02126353
H        0.21566003       7.08793315      14.16843037       0.27705638      -0.12524171      -0.00558730      -0.07071207       0.10516832      -0.03548294
H       13.78613597       8.47193749      12.09679033       0.24464343      -0.02240613       0.05163275      -0.14139069      -0.00208301      -0.07002045
H        5.37674708       2.37547838      13.43045285      -0.78077756      -0.07838525       0.14512260       0.00600903      -0.11853532      -0.11233492
H        9.67815725      13.83550299      11.73041038      -0.49405193      -0.49185242       0.06846472      -0.03621587      -0.00020888      -0.18590690
H        0.55841910       7.18789878      12.50412890       0.12509701      -0.52465174      -0.26575783       0.27415889       0.04656331       0.13943647
H       13.64609359       8.40683007      10.43344641      -0.18719483       0.00923499      -0.15741200      -0.03373791      -0.00735564      -0.07383846
H        4.08068739       1.80213843      12.39940627       0.20167945       0.15345703       0.52638260       0.08879160       0.04454909      -0.08158401
H        8.53159502      13.12884680      10.59338337      -0.95750156      -0.49395122       0.44641648      -0.03964046       0.19749449      -0.01455627
H       37.23771110       8.48277469      13.48711564      -0.17188527       0.30638368      -0.13385389       0.07104845       0.04895888      -0.05987976
H       14.96581033       7.67434403      11.13949025       0.40860156       0.23657259       0.27118375       0.02281687      -0.04781360       0.02692525
C        3.52508795       3.54660963      13.54325752       0.78699132       0.24203495      -0.17457574       0.36604006       0.18727286       0.27189366
C       10.31476700      11.91145217      11.06756188      -0.32440385       0.03859926      -0.49830095      -0.02176054      -0.15269900       0.13046545
C        0.76966292       9.02851367      13.55213150       0.82896587       0.41164389       0.71069638       0.01848716       0.03642386       0.02762844
C       13.26520147       6.54030276      11.43509619      -0.51506747      -0.77363135      -1.29192613       0.23431175      -0.39309937      -0.43336055
Pb      36.89797567       4.36927493      11.22237123       0.02759724       0.20913672       0.17027484       1.05402196       0.80162169      -0.68228795
Pb      15.65915416      11.56001397      13.55460432       0.05073257       0.06310280       0.09390226      -0.14522310      -0.51922608      -0.06903642
Pb       6.22453742       9.36693581      11.03134871      -0.41359523       0.35824101      -0.03376286       2.85411661       1.61923729      -1.44223101
Pb       8.00004146       5.82063641      13.37981581      -0.25234135      -0.21091603       0.03429594       0.16996437      -0.91441890      -0.76770490
N        4.32454711       2.24846144      13.35743420      -0.30086902       0.60686381      -0.32306934      -0.22341821      -0.36911718       0.40454199
N        9.54495412      13.20785277      10.88869284       1.49867993       0.58155506      -0.35195182      -0.27389888       0.78481406      -0.57034585
N        0.12106377       7.70150774      13.32364139      -0.75247560       0.23189749      -0.03555898       0.51000976      -0.28650313       0.24543580
N       13.95394672       7.84522384      11.27685041       0.18366556       0.01153202       0.20083580      -0.18071922       0.14299425      -0.18548216
I       16.21134437       5.62643400      18.42583785       0.00314898       0.15419844      -0.02327569      -0.74865169      -2.49158316      -0.58472336
I       16.98506005       9.94920196      16.24258023       0.08156375      -0.14985549      -0.09639040      -1.09745946      -1.00569816       2.75491148
I        7.11897873      11.46167143      18.28911148       0.13777709      -0.16149244       0.09813488      -0.27325951      -0.11845057       1.08203651
I        6.93368337       3.85028524      15.51116301       0.06132932       0.19107737       0.38376833       0.30114956       1.01509874      -0.33256913
I       14.50045567       2.25477677      15.93280312       0.32079494       0.00740920      -0.06126680       0.71645716       0.06186648      -0.88417410
I       37.65745881      13.82116447      18.57655911       0.12013410      -0.21249281      -0.10361717      -1.16319187       0.01927031      -0.10638745
I        8.98228943       7.74353373      15.75135513       0.07285096       0.09609341      -0.02568283       0.20230935      -0.44200378       2.33835919
I        5.12893582       7.41516975      18.15131279       0.16093298      -0.10601460       0.18181802       0.40131352      -0.69795187       1.82166121
I        1.02571944       5.48134084      15.71571130      -0.10325814      -0.02291077       0.25725368       0.09506062       1.02532280      -1.21686451
I       13.14284072       9.84506962      18.46093685      -0.07030852       0.28533816      -0.18886494       1.39394692       0.47850546       0.66458811
I        3.21406970      10.99185557      15.83218056       0.18866076       0.03495208       0.06938211       1.31227245      -3.15352395      -0.56928644
I       11.02862616       4.14569968      18.31887613      -0.28402575       0.33615914      -0.06600009      -1.86690055      -1.24544342      -0.60819246
H        2.58467652       3.32728179      17.68330324      -0.00981536      -0.46500835       0.07703039       0.10933849      -0.07798591      -0.03310077
H       10.16901942      11.00300248      16.86133531      -0.13638350       0.67206822      -1.09263808      -0.01674411      -0.08358908       0.13929675
H        0.70785264       9.47749023      17.78859360       0.37492528      -0.04587838       0.92088007      -0.05554535      -0.17927847      -0.01961860
H       13.24626225       6.01124636      15.06827364      -0.07987634      -0.08853665      -0.04927689      -0.09553933       0.04304003      -0.03848859
H        3.67533188       4.10664520      18.86482040       0.13057743       0.54684293       0.28033972      -0.06010239      -0.02069925      -0.09298357
H       10.19270636      11.06975501      15.01942958       0.16312494       0.67111193       0.77973331       0.03606351      -0.04591964       0.12579887
H        1.17835267       9.25093720       0.18513871      -0.18944835      -0.00260743      -0.30841445      -0.03907914       0.21184299      -0.11573365
H       13.11328083       5.92507079      16.83025895       0.46118637       0.18277851       0.42644512      -0.07363319      -0.01445200       0.02191162
H        4.06663110       4.08247725      17.09025239       0.47871982       1.11254264      -1.15691490      -0.25545182       0.03673739       0.02099619
H       11.53291235      11.78531585      16.07727582       0.58897856       0.50279878      -0.38800449       0.07712712       0.06035865      -0.09905589
H        2.02261786       8.31172190      18.42737219      -0.15237264      -0.07049728      -0.19743058      -0.13931186       0.05157076      -0.01685233
H       12.16698089       7.21391097      15.93922305       0.41368750       0.02172523      -0.12341716       0.02620379      -0.03576588       0.03394435
H        5.48773541       2.58465368      18.33505598       0.67473639      -0.07435778       0.07885292       0.03493715      -0.12666277      -0.12248196
H       10.01737367      13.52871027      16.87103344      -0.00452843      -0.15988879      -0.39867062      -0.24425512       0.04528719       0.00328324
H        0.39199805       6.76242104      19.04824750       0.06168592      -0.33728525       0.47986023       0.08600964      -0.22748276       0.04564628
H       14.10812582       8.35828034      16.69732724       0.03584432       0.27427632       0.58995030      -0.19925530       0.04625543      -0.19784211
H        4.44855143       1.68256932      17.35649997       0.01599305      -0.37174050      -0.92124228      -0.09340086       0.17879841      -0.28574811
H        8.65332314      12.95471982      16.05371372       0.12527893      -0.44551643      -0.15242992       0.06478579      -0.13397510       0.16884541
H       -0.17724248       7.27607218      17.40164619       0.15755693      -0.18969955      -0.23096150       0.03575874       0.19894747       0.06898302
H       14.25776454       8.18899854      15.06325883       0.69260194      -0.15881508       0.32691549       0.12743398      -0.01883126      -0.00047116
H        4.12275031       1.75716624      18.94694420       0.30914682      -0.07991204       0.34083309       0.07903179      -0.09350657       0.05069203
H        9.96883425      13.62647176      15.19555471      -0.14010032      -0.53168032       0.47406368      -0.10605627       0.00146336      -0.00704586
H       37.19169802       8.76245260      19.30812111      -0.76636500       0.20527563      -0.13233708       0.04167048       0.10796991       0.00105710
H       15.26553406       7.16561685      16.19395766      -0.00994048       0.20419975      -0.40787750      -0.08876293      -0.03733471       0.09202183
C        3.65515089       3.55743833      17.92185575      -0.39040459      -1.02524277       0.76622736      -0.46173922      -0.36476911      -0.23494493
C       10.45573389      11.63186313      15.95851738      -1.57711433      -1.14185249       0.66415175      -0.28462933      -0.23917470      -0.31580422
C        1.00374594       8.74495586      18.60213553      -0.24749615       0.08804584      -0.91380062      -0.63784274      -0.45697166       0.57816539
C       13.15062176       6.63620245      15.97076884      -0.51986137       0.01735724      -0.61673915       0.11073707      -0.32960319      -0.03643608
Pb      36.67541975       4.41062775      15.94285061      -0.05065133       0.09868613       0.08883866      -1.41634358      -0.13272919      -3.79632865
Pb      15.77441965      11.72164908      18.34258352      -0.24447407      -0.10153275       0.26357855      -3.49333080      -1.23619863       1.94314201
Pb       6.01978586       9.49854637      15.93768222      -0.12845264       0.12748014      -0.17989705       1.57529082       1.91856802      -2.55639436
Pb       8.20692354       5.87096501      18.30248823      -0.15272628      -0.46745468      -0.32487449       1.11596567      -1.49287777       1.41910843
N        4.50881602       2.33247592      18.14154452      -1.37224289       0.18907181       0.50478235      -0.10249850      -0.12133285      -0.14232544
N        9.71573069      12.97257524      16.00827067       0.86732195       0.40630445       0.09436296      -0.37969661      -0.31698741       0.04491026