768
Lattice="25.625769195560288 0.1442251890105203 -0.06288156074118129 -0.08544278206367628 25.555723663810763 -0.05823012908242495 0.07213310111533067 -0.1299461261962401 25.66616038795785" Properties=species:S:1:pos:R:3:forces:R:3:momenta:R:3 energy=-3321.860777019758 stress="0.0 0.0 0.0 0.0 0.0 0.0 0.0 0.0 0.0" pbc="T T T"
I        6.86229909       0.75070926       2.30691847      -0.24512257      -0.01560895       0.16422416       0.30514866      -1.63233880      -2.27658831
I        6.01541506      11.90428451       8.93338963      -0.03898222       0.13664781       0.07043566       1.36264470       0.16366891      -2.24808953
I        6.03989019       9.48289106       4.85087632       0.16730361       0.27915280       0.07817367      -0.39571416       1.56939334      -0.38659181
I        6.38157972       3.31534311       6.17956699      -0.00208146      -0.19593513      -0.03202137       1.00510878       2.17569570      -2.49198725
I        0.39089577      11.88859588       9.16759013      -0.27314885       0.20285572      -0.57367505       1.53051459       1.22531273       0.19025176
I       12.25348454       0.69068031       2.57608622       0.01453631      -0.15356235      -0.24172947      -0.09598373       2.06139537       0.17080396
I       12.77353544       3.10593078       6.29274559       0.05902191      -0.01570262      -0.14547946      -2.79152720       0.32506679       1.17963833
I        0.66643105       9.55463140       4.78230513      -0.15880577      -0.02642459       0.11557231      -0.48626848       0.56257837       1.79556903
I        9.53706504      13.10781308      11.80683114       0.08595661      -0.07407026      -0.01896763       1.64068711       1.55803955      -0.41515766
I        3.03243500       6.40520020       6.23081993       0.02192816      -0.12246915      -0.17347363      -0.16539277       0.23279430       2.05755410
I        3.00780790       0.76358325       4.81060599       0.06342092       0.01861644      -0.07754852       0.17793590       0.15879097      -1.25295517
I        9.57249489      12.54346626       6.11771906      -0.37994879      -0.04918044      -0.09332949      -0.33666100      -0.50351618       0.28819396
H        3.94374187       2.48030826       1.69647459      -0.72146217      -0.10831698      -0.27417536       0.06051132      -0.04283003       0.09699329
H        8.56417977       3.88010174       1.48326674       0.59109622      -0.40447660       0.40744306       0.12366974      -0.01267981       0.05451164
H        8.62914658       9.01026642       2.77167845       1.06367090       0.30101515      -0.31919950       0.03955037      -0.31095343      -0.01723674
H        2.23551622       2.51978667       7.50841774       0.36612989       0.01462760       0.83761225       0.10001487      -0.11388897       0.26135089
H        1.94985049       8.83212138       8.79875172      -0.15738165      -0.00195589      -0.65332976      -0.01075805       0.05129087       0.19965531
H       10.36102286       4.17205846       1.81614996       0.60736234       0.72719269       0.20312118      -0.20678577      -0.04529004       0.07251296
H        8.49533983       3.07394098       8.53051276       0.69999925       0.15098579       0.38701490       0.08225105       0.15050390       0.18584257
H        4.02759700       2.60455331       7.82424136       0.11001674       0.23283738      -0.15539047       0.09359548       0.18135755      -0.06630737
H        3.29399699       3.97751267       0.89195695      -0.13992311       0.11294007      -0.83802888       0.13259854      -0.06154902       0.26592146
H        9.90585522       2.64341797       1.08652598      -0.31345289      -0.79392340       0.28216979       0.17506212       0.23964289       0.13440838
H        9.77223258       9.52370622       4.01407938       0.26219682       0.20060596       0.11250872      -0.05046623       0.02586867       0.18539679
H        3.08943500       2.04839820       9.17664557      -0.62692237      -0.79921380       0.04677156      -0.00668420      -0.05513533       0.06275627
H        3.30949838       3.61385391       3.82825249      -0.03609083       0.64414096      -0.76135963       0.04407589       0.07234582      -0.02105749
H        9.69488801       8.54511126      10.46853014       0.07284310      -1.77769565       0.00249510       0.11985696      -0.07723885       0.05626653
H       10.29710518      11.53821548       2.68839043       0.48507137       0.12028751       0.06971942      -0.31919455      -0.00154794       0.04159233
H        2.74793028      10.35415036       3.52539448       0.15596073      -0.43321897      -0.69361430      -0.04459287       0.24682460      -0.18483858
H        2.71998034       5.03934413       2.90684745       1.28629463      -0.81122751       0.24872343       0.12662188       0.04660136      -0.15802668
H        8.73343054       9.72084063      11.05999349       0.20813375       0.03974344      -0.24083942       0.02344232       0.26561981       0.01013001
H        8.65682883      11.35267827       2.81304840      -0.40043095       0.44454600       0.04240206       0.09593023       0.13554035       0.22557506
H        3.41824288      11.25254448       2.22026795      -0.20300234      -0.49882624       0.06435870       0.03741577       0.01493893       0.18908092
H        4.47696824       4.53845898       2.74032920      -0.12860921       0.37147172       0.52866934      -0.19166027       0.30692773       0.06169324
H        9.32901476       3.77559988       3.95271020      -0.43477473      -0.99808040      -0.60289292       0.23125880      -0.19455666      -0.09126733
H        9.41279978      10.97302946       1.38090917       0.13712736       0.02160714       0.61947687      -0.13801218      -0.02853985      -0.02468870
H        4.37550926      10.31763512       3.25842716       0.53545576       0.03225297       0.34592097       0.26719134      -0.01574736       0.11818188
C        2.87997767       9.41068812       8.73786309       1.17485353      -1.00451032       0.12586899      -0.49769836       0.30820822      -0.12427021
C        9.56540185       3.43020275       1.83346168      -0.68223279       0.33223082       0.56478946       0.12968594      -0.51249417       0.20756419
C        9.64688306       3.28679393       8.77561460      -1.82366905       0.61124343      -0.43704436       0.62265610      -0.40536838      -0.86016631
C        3.03205801       2.70544704       8.30143429       0.36020590       0.60494862      -0.51202937       0.10523580       0.36679855       0.34009240
Pb       6.31645245       6.26450200       5.29671410       0.13759474       0.00858028       0.23702103       1.33671968      -0.36601762       0.29926773
Pb       6.31154004      12.68611528       5.63192018      -0.07355323      -0.14786210       0.02220671      -2.31529937      -1.26116517       1.97936054
Pb      -0.25363530      12.77448147      11.97753131       0.31576923       0.25033739       0.07441217       1.81311293      -2.84943519      -3.58502255
Pb      -0.21618175      12.65940453       5.42143073      -0.00367817      -0.11426323       0.49769389      -1.00397320      -4.63828920      -5.35093017
N        3.43022169       4.16446465       2.90718965      -0.98241774       0.39411001       1.35358149      -0.01396915       0.25965977       0.86116362
N        9.60762926       9.53487283      10.49767987      -1.28085074       1.79929596      -0.20938155      -0.70356411       0.35144669      -0.83043293
N        9.51475285      10.90870324       2.44103587      -0.71160043       0.48423999      -1.50897908      -0.13454354      -0.08522101       0.98480198
N        3.47970702      10.31943256       2.73547122      -0.39714938       1.31418711       0.20985015       0.25398040      -0.45117219      -0.20055760
I        7.04503081       7.15094739       8.64482743      -0.07238779      -0.03618591       0.16266733       1.97103056      -2.56036533      -0.96175757
I        6.14314312       5.64640148       2.29681628       0.16252000       0.17140700      -0.12508942       3.03342576       1.25312726      -0.57306772
I        6.02791031       3.18745054      11.02109004      -0.11235343       0.39527503       0.06077671      -0.46940747      -1.03052274      -2.19368977
I        6.70980011       9.52843091      25.23135217       0.13770739       0.18077195       0.09036123      -0.71757403      -1.07726641       2.75051168
I        0.55625925       6.13073761       2.45897834      -0.05659817      -0.08710267      -0.24908498       3.57572701       0.21045370       1.19815988
I       12.40504890       7.14322545       8.40926424       0.07125429       0.12525885       0.44189423       1.02282144      -2.29909129       1.05010045
I       12.26564680       9.44608169      25.44354491       0.08791621       0.00557829      -0.03748495       1.22825802      -1.91900006       1.63570260
I        0.56141648       3.21429193      11.19532857      -0.22016391       0.06355527       0.16745155      -0.24298694       0.56630023      -0.82590192
I        9.59415005       6.00198036       4.85340365      -0.16813169       0.06592620       0.03683807       0.18127035      -0.60562055      -0.16905159
I        3.10202131      12.31066127      25.36664166       0.12424372      -0.11018854       0.05634619      -0.19430143      -0.40659478      -0.96697062
I        3.25945496       6.88181188      11.33084068       0.17458860      -0.17151730       0.22973369       0.30850932      -2.23305893      -2.86068616
I        9.73963523       6.41103236      25.01335597       0.10617909      -0.14654404      -0.03499566       0.25283290       1.54494600      -2.00564808
H        3.74411876       8.70230840       8.47545194      -0.76312870       0.51035308       0.51384962      -0.00300442       0.31275004       0.07397553
H        8.31402125      10.02089538       8.82744535       0.43256745      -0.01961498       0.10460538      -0.22181644       0.03393297       0.09115837
H        9.83281256       3.37243139       9.85363190       0.05966324      -0.33172661       0.48277181       0.00431333       0.16982494      -0.25642270
H        3.83069415       8.23485013       2.38493564       0.19531753      -0.32919282       0.75522910       0.09618792       0.38101773       0.11466142
H        2.05441137       2.92759587       1.87999012       0.43565570      -0.29434285      -0.66582481       0.12204977       0.02075327       0.06435159
H        9.89920944      11.17666538       9.08698570      -0.03266185       0.35912310       0.24302681       0.03180324       0.21250274       0.02144638
H       10.51284615       9.07905419       2.42978647       0.06533317      -0.59802408      -0.20745515       0.26509338      -0.10164111       0.33780283
H        2.44868513       8.91640344       1.44393012      -0.11536057       0.66504557      -0.19747529       0.10273037      -0.13473406       0.17755146
H        2.93414325      10.17771406       7.94745022      -0.62446929       0.17033255       0.49418870      -0.10855547       0.12453629      -0.11418200
H       10.15480093       9.36649895       8.37930500      -0.34813463       0.23539839      -0.06198666      -0.15101346      -0.06934477       0.18274124
H       10.31506454       2.47873120       8.26748807       0.12931512       0.42678474      -0.18782659      -0.18690511      -0.15043164       0.16783468
H        4.25244602       9.34431244       0.95883614      -0.52009773       0.16575421       0.29741429       0.00714677       0.10422552      -0.27792151
H        2.17729698      10.50331835      10.40349388      -0.23442645      -0.09543038      -0.01942858      -0.22133265       0.12038987       0.20942918
H       10.29325332       2.39826127       3.54026416       0.23123716       0.21910061       0.05152817      -0.03816225      -0.34769049      -0.04390296
H        9.26438529       5.52511533       8.66486469      -1.17909018       0.15171474       0.53310116      -0.30291578       0.09539584      -0.22248865
H        3.04649558       4.88858482       8.23956806      -0.02417941      -0.98802316       0.81314408       0.05716035      -0.06246322      -0.04195566
H        3.81516449      10.71763334      10.08026911      -0.39440041      -0.97951406       0.45791904      -0.04978943       0.04914497       0.14726671
H        8.70122225       2.18896535       3.28390611      -0.96830646       0.07707965       0.54347553       0.33723909       0.16015234       0.11672618
H        9.74814944       4.76186217       7.25255797      -0.08017790       0.11778418      -0.49173673      -0.02433438      -0.23969898      -0.23195051
H        3.67847974       4.08204580       9.73800548      -1.43756863       0.20177576      -1.24325178      -0.03351832      -0.24418491      -0.18307713
H        3.21236418       9.15106980      10.86335526       0.28806942       0.99220093      -0.89234617       0.04282678       0.09831134      -0.08896353
H       10.38037640       9.90730606      11.06649331       0.71947689       0.04659221      -0.00606165       0.15968110       0.07502115      -0.11131887
H       10.93911711       5.05549863       8.48742040      -1.19782256      -0.48799705      -0.38882972       0.02369530      -0.07750272      -0.15291269
H        1.99278971       4.09418308       9.40089647      -0.87415465       0.40128324       0.68418725      -0.09176884      -0.13196074       0.10435149
C        3.15345060       3.28969166       1.72093148       0.13622713      -0.76520314       0.52776318       0.54047364      -1.02001215      -0.28372076
C        9.48110241      10.08350030       9.08879929       0.32502427      -0.68859892      -0.03212178      -0.38539340       0.26225278      -0.15305210
C        9.63699361       9.52937487       2.91052419      -1.08293643      -0.97645715       0.86025134       0.82473563       0.78694189      -0.16473354
C        3.49540039       9.17221146       1.82964499       0.23036565      -0.97391828      -0.99722942       0.41671435       0.78673714      -0.24599501
Pb       6.30208935      12.85764752      12.06189290      -0.35736773       0.14900992      -0.02661100       0.36647004      -0.01974599      -1.25411296
Pb       6.43224275       6.44788627      11.67408843       0.05808232      -0.32768917      -0.16798368      -2.69493344      -2.30328589      -2.29607409
Pb      -0.01077241       6.47365553       5.36317723      -0.12748173      -0.11075898       0.38228336       0.31171510       0.40923051       0.43635575
Pb       0.04064013       6.53648872      11.90132885      -0.35951341      -0.43493776       0.07801020      -2.49147070       1.72742831      -0.88375366
N        3.04223310       9.96185439      10.14146767       1.02246180       0.49363351      -0.39222634       0.32973635       0.70858184      -0.32948040
N        9.43768923       2.93142229       3.28681229       1.03902072       0.81382887      -1.35187623       0.01763857       0.68968554      -0.37682312
N        9.86811628       4.73917895       8.28024939       3.11477620      -0.75469445       0.07864873      -0.55582251       0.65775698      -0.11416612
N        2.90620502       4.06962530       8.93747447       2.47190257       0.20513466      -0.43574852       0.13482863       0.01093246      -0.39798995
I        6.81798194       0.51027503      15.29946331       0.02338142      -0.11634104      -0.39804013       0.03031563      -4.21627865      -1.41481211
I        5.72863995      12.11941644      21.89877856       0.17737537       0.05237015      -0.25618405      -2.87337825      -1.28427086       0.78552380
I        5.81398000       9.64779857      17.91235121       0.02760748      -0.12378526      -0.19896148       2.39956229       0.94009939      -0.77506001
I        7.29766768       3.16990803      18.64776777      -0.24430808       0.19113679       0.09703814      -0.27578789       0.80473017      -0.77270699
I        0.44172634      11.66644499      21.87214864      -0.05389708       0.05036167      -0.14252641      -1.87207405      -3.41100478       0.49790648
I       12.45978129       0.61353456      15.42777283      -0.06530691      -0.12381114      -0.33109364      -1.09361742       0.97358449      -0.77516302
I       12.26970986       3.19966725      19.00339064      -0.00653077      -0.17651304       0.06992414       0.42670246      -2.07030719       0.09491060
I       -0.04850586       9.45539312      17.82199249       0.30812228      -0.01364954      -0.08701778      -0.68537663      -1.17105778       2.81503234
I        9.55295525      12.88312190      24.64393582       0.06045753      -0.11271914       0.01584084      -1.19837365      -2.88753274       0.32347763
I        3.37803451       5.86520907      18.45780632      -0.27045507       0.00193707       0.08475258       1.72607380       1.60653884       0.91293381
I        3.15105927       0.42062652      17.82889021      -0.27239122       0.07423891      -0.15390843       0.13268835       0.27698512       3.71891714
I        9.45907282      12.28842012      18.29068463       0.44567962       0.01564438       0.11868325       0.99907376      -0.68837933       2.43261173
H        3.80200926       2.33979795      14.28431734      -0.15469690      -0.12080353      -0.37422137      -0.02617330       0.14239062      -0.11752313
H        8.26776170       3.47163502      14.16263024       1.15321613      -0.83868970       0.48945539      -0.18527209      -0.00258753      -0.23882692
H        9.03746776       8.62451756      14.69047818      -1.41234666      -0.83620061      -0.28285563       0.19726395       0.18417084      -0.10087499
H        2.61486981       2.54238522      19.93993999       0.32054619       0.17499292       0.70308052       0.10792564      -0.09130874      -0.04427221
H        2.95304294       8.45705535      20.83452072      -1.10711716      -0.43291628      -0.52034871       0.19822240      -0.07296151      -0.15608583
H       10.11604446       3.69310652      13.93366106      -0.51939544      -0.21544636       0.42682379       0.26230361      -0.06895193      -0.07701182
H        8.42434430       3.16383673      22.06368207       0.00174031       0.67810952      -0.12357003      -0.15171710       0.20159311      -0.16570321
H        4.32634794       2.29179663      21.02100915       1.72003625       0.20180012      -1.02554883       0.07775479       0.19866150       0.03649113
H        2.65481132       3.48207339      13.37273529       0.17690304       0.00248502       0.80243854      -0.00538501       0.08826460      -0.39683597
H        9.35675163       1.93555994      14.01348359      -0.14579845       0.16034055       0.27053754      -0.18431771      -0.12305917      -0.15781732
H        9.11875171       9.42152167      16.54393042       0.19381439       0.12965110      -1.29456342       0.01466825       0.22393847      -0.34038522
H        2.63069330       1.74561499      21.86567220      -0.07722283       0.32551340       0.61559291       0.06527569      -0.06153788      -0.30119223
H        2.89136963       2.81726921      16.37805767      -0.07048556       0.60253187      -0.79598451       0.06557200      -0.01616095       0.00075504
H        9.21472099       8.41976284      22.76893950       0.11174563      -0.06940335       0.18770119       0.13947651       0.10325754       0.00239125
H       10.21380365      11.42901008      15.01725290      -0.52906169      -0.23450278       0.01834572      -0.05433964      -0.00431363       0.05855010
H        2.16694783      10.47180634      16.15641193       0.91215788      -0.32468132      -1.06729166      -0.01178107       0.07999135       0.17359488
H        1.87163637       4.02900722      15.77559809      -0.48684374       0.54602040      -0.16453363       0.15178571      -0.27944824       0.08745150
H        8.82391538      10.00159914      23.39868901       0.25338830      -0.36082978      -0.04124070       0.08474093      -0.17314541      -0.04077058
H        8.52489791      11.16402719      15.00726021      -0.61284514       0.69734865       0.23026070       0.32388479       0.07087485       0.02183532
H        3.01308844      11.12085623      14.78409646      -0.10723961      -0.94044645      -0.10714934      -0.03947706      -0.02840046      -0.00811474
H        3.57227676       4.19110595      15.66110927      -0.33532669       0.10388001       0.00636685      -0.15857558       0.07935850       0.06792473
H        9.47779350       3.89668837      16.47688258      -0.16017231       0.03282191       0.17225198      -0.00650412       0.08424407      -0.10209738
H        9.45897805      10.60256136      13.75734024       0.02994128       0.31493388      -0.06664255      -0.03901101       0.00477845       0.00697799
H        3.81389308      10.47077527      16.10917428       0.39979213       0.08356782       0.28163827       0.07544648       0.08125442      -0.07250574
C        3.53385754       9.46472169      21.01686281       1.40113392      -1.06947639      -0.81913420       0.72809338      -0.11881616       0.03523857
C        9.30040964       3.01190083      14.44747146      -0.10979348       0.86612005      -0.91149117      -0.29501713      -0.29693295      -0.41607485
C        9.42017397       3.70358371      22.14516727      -0.85133861      -1.27114443       0.70070687       0.28537917      -0.75610056       0.07784339
C        3.15186374       2.55025228      21.12971693      -1.84189241      -0.09523581      -0.21672610      -0.22995871       0.42423016      -0.00190951
Pb       6.40522416       6.37374561      18.01560628      -0.12801036      -0.46845720       0.11448564       4.04859413       0.73061430       0.96578994
Pb       6.37251062      12.65123779      18.60701122      -0.26284924       0.04030078       0.01181963      -0.32475978      -0.98118855      -1.76691776
Pb      -0.13042786      12.73686979      24.73010200       0.30253618      -0.04204604      -0.20844691       3.34628523       0.20722478       0.76678829
Pb      -0.07399629      12.39715783      18.72874387      -0.03761304       0.07884954      -0.12338333      -3.17990737       1.81996798       1.38438192
N        2.75975579       3.53790733      15.58743241       0.87008782      -0.86124738       0.84876371      -0.11612873      -0.16928271       0.83084915
N        9.59001146       9.44946997      22.84500701      -1.14113378       0.04531612       0.16416642       0.50496990       0.02182268      -0.79904592
N        9.43221802      10.75158914      14.77948926       1.09320715      -0.54505190       0.11892755      -1.09330442       0.86925170      -0.51609154
N        3.00790902      10.32222913      15.48940887      -1.12002183       0.43841902       1.37552829       0.10558104      -0.76271154       0.00962356
I        6.88255618       7.41673421      21.62818563       0.08637614      -0.23124522      -0.38184550      -2.20945426      -1.53966663       0.38672422
I        5.96526816       5.53838725      14.93004033      -0.08670367       0.07909139       0.28507134      -0.02863612      -0.50693761       0.92835200
I        6.05038068       3.26024213      23.62610384      -0.02620753       0.09613000      -0.00195058      -1.97969501      -0.51867655       0.06175413
I        6.70210076       9.81452226      12.59985778       0.02118670      -0.41641043       0.05761158      -1.33788043       4.30094960       0.99258397
I       -0.50220566       5.32422905      15.18441145       0.34651346       0.03041292      -0.17631707       0.40041497       0.61500707       1.07306379
I       12.33296353       6.76063474      21.52132842       0.12983273       0.08168517      -0.11453195       0.10607056      -0.25209630      -0.32915863
I       12.42630007       9.54830985      12.88561935      -0.05597592       0.44901627      -0.24374948      -0.76281152      -0.55053864       2.38654059
I        0.48555754       2.97581727      24.16232431      -0.16536560       0.26971364       0.10931016       3.41343240       1.73701125       1.13378222
I        9.67883019       6.38170707      17.47732313       0.12111403       0.03321793       0.06416050       0.77587529       1.64423966      -1.30535161
I        3.00110460      12.16677514      12.59111377       0.42103625       0.15062160      -0.03196912      -3.23020679      -2.84563430       0.28441637
I        3.25478471       6.54223798      24.59162480       0.03975264       0.09373231      -0.19234638      -0.50374899       0.45681564      -1.62596400
I        9.82132730       6.19060410      11.75689124      -0.46599995      -0.10077807       0.11441937       0.80083784      -2.48313121      -0.94288514
H        4.68355738       9.15872807      20.74421591      -0.77594290       0.98260791      -0.00911273      -0.27750627       0.11751854       0.07620448
H        8.64930943      10.21131450      21.00962403       0.68709374      -0.29684520       0.42816513      -0.02660657      -0.34085628      -0.22344537
H        9.49890329       4.05002859      23.23253788       0.39411311       0.06038537      -1.00564015      -0.19575869       0.04884055      -0.03155499
H        3.08833948       8.21039328      15.80153232      -0.35224302      -0.54405233       0.54265724       0.07765709      -0.10839677       0.06733673
H        1.97136032       2.06021282      14.25720192       0.81306052       0.38552743       0.16798134      -0.32068957       0.07230590      -0.21650437
H       10.14666064      11.17427004      21.67792434       0.29202845       0.09100886      -0.05955695      -0.09124450       0.26631844      -0.04343440
H       10.77932258       9.14107206      15.35646676      -0.26418022       0.15740568       0.35483040      -0.12288838      -0.27741515       0.27937369
H        2.30953592       8.78387057      14.23709414      -1.22056629      -0.32798043      -0.60525743      -0.44796501      -0.14068455       0.04019728
H        3.20035105      10.43464367      20.37888315       0.02794073      -0.57488309       1.19774928      -0.18478789       0.30643869       0.01601035
H       10.51176010       9.43974731      20.91407516      -0.36139039       0.13712448      -0.01366730      -0.26547313       0.14485393       0.24071318
H       10.13974865       2.91074732      21.80170282       0.72009306      -0.14436554       0.37425221       0.15871952       0.09890390       0.10997854
H        4.08410451       8.75073820      14.41449747      -0.94619446       0.20127133       0.64548592       0.01929438      -0.12663094      -0.15753787
H        2.26966162      10.06878822      22.78885668       0.11642467       0.38195267      -0.21094945       0.04229906       0.35573628      -0.20034836
H       10.48443971       2.55246550      16.26168941       1.09118588      -0.77201730       0.17492444       0.06152397       0.22159122      -0.11367582
H        8.92868854       5.62614382      21.27332478      -1.32224563       0.55918774       0.66602696       0.01847260       0.07607303      -0.02042276
H        2.87061871       4.64528356      20.86926226       0.33775806      -0.35713117       0.22876468      -0.03312857       0.08974259       0.01678152
H        3.97448733      10.42873305      22.92204715      -0.51081764      -0.00274476       0.00301806       0.10840958       0.31024937       0.00506462
H        8.82794937       2.22586527      16.36956690       0.13710259       0.22741656       0.45116284      -0.39947076      -0.00293929       0.18843202
H        9.62294109       4.58968382      20.18324098       0.09277897      -0.39032233      -0.57785853       0.00537560      -0.15041437      -0.04587893
H        3.65663717       4.24404426      22.35294729       0.66138911      -0.07141755       0.48085495       0.08008702       0.05887230       0.27020725
H        3.29510544       8.79066101      23.16859652       0.18775809      -0.31267434      -0.43572403       0.11712351      -0.32944905       0.14922790
H       10.48506897       9.44760282      23.42867195       0.32222378       0.01876130      -0.05271724      -0.11977173       0.04262006       0.03176107
H       10.58422781       5.36127107      21.35665833      -0.76664224      -0.48429449      -0.36177544      -0.04841435       0.02566394      -0.01994013
H        2.00109182       4.06727796      22.17925810      -0.09160352      -0.33996076       0.17391396      -0.36174968      -0.09204903      -0.29329879
C        2.80440273       2.82821964      14.28059522      -0.64780290      -0.70590800      -0.37422763       0.08687418      -0.20442584      -0.29207268
C        9.74919899      10.09146824      21.50797451      -0.16559445       0.45734825      -0.43771072       0.05337176      -0.69539612       0.16701685
C        9.60032869       9.38668246      15.40809573       1.50340063       0.60144847       1.11542749      -0.11218282      -0.70431914      -0.08740247
C        3.08518168       8.89480149      14.95589888       2.21622007       1.24500416      -0.71756936      -0.08085520       0.41753641      -0.09141112
Pb       6.39549187      12.73679605      24.92410458      -0.12169031      -0.01114761      -0.05590010      -2.07266865      -2.37824684       2.87545603
Pb       6.68345437       6.20594890      24.45657404      -0.15377331       0.14551000       0.13590616      -2.30148409       0.45541571      -3.99488859
Pb      -0.34107891       5.89959305      18.36086515       0.53492823       0.34165254      -0.15409659       0.76267842       1.24325241       0.73821528
Pb       0.10325353       6.35891631      24.78542097       0.10722579      -0.26303942      -0.13174329      -3.65635478       0.72499395      -0.31586061
N        3.25052722       9.68192139      22.55732585       0.59948312       0.81275476       0.78805547      -0.01680167       0.08918564       0.22112276
N        9.55639065       2.92100130      16.01609084      -1.31078767       0.63221142      -1.02102008      -0.57831366       0.64473204      -0.16574267