768
Lattice="31.69945668710882 -0.05318654843770361 -0.36351599514761185 0.040002385871756 30.414649832433703 0.5117498230958147 0.4104475048070117 -0.22194636651643873 17.44856456336718" Properties=species:S:1:pos:R:3:forces:R:3:momenta:R:3 energy=-3336.719759276994 stress="0.0 0.0 0.0 0.0 0.0 0.0 0.0 0.0 0.0" pbc="T T T"
I        6.94168719       2.54562940       2.66215553      -0.14032989      -0.08042672      -0.04777454      -1.08414961      -0.50755559      -0.67862769
I        1.10201643       7.60949688       1.91081941       0.12362524      -0.08991018      -0.13718436       2.66982548       1.77072363      -0.71086644
I        6.92334681       2.80534218       6.97921903      -0.08120661      -0.08692123       0.22361280       0.72015343      -1.97190815      -1.26184504
I        1.29046556       7.65804982       6.32694259      -0.03176368       0.01889045      -0.17331010      -0.80859366       0.39203406      -1.52644266
I        5.17658535       6.50167617       3.82787218      -0.24269860      -0.30367661       0.13143988      -1.44002366      -0.51621309      -1.50363309
I        3.20752633       3.86546201       9.33793863      -0.02867729      -0.09583909      -0.10878381       0.13018849       0.15474088      -0.82515595
H        3.76486574       3.91589109       4.89328399      -0.47188752      -0.45582326      -0.25773919      -0.39398256      -0.10471389       0.00456735
H        6.01338436       7.71369924      17.21228679       0.05789099       0.28515784       0.46763711       0.21438317       0.23331368      -0.10988666
H        2.26946977       3.61893518       5.98574213       0.39647629      -0.26523283      -0.38413320       0.31357624      -0.00317126      -0.06122766
H        6.71585658       6.52154031      16.07282777      -0.18312196      -0.05352623      -0.54054131      -0.00007931      -0.00200515      -0.04227642
H        2.45480443       2.58370076       4.33272783       0.05986530       1.22679445       0.76073007       0.12701044       0.05604711      -0.09283827
H        4.91699766       6.42838293      16.67743955       0.00740279      -0.55066094      -0.08810507       0.06085699      -0.26767754      -0.05330605
H        2.10896460       4.96893753       3.28527291       0.68412086      -0.13131488      -0.41775654      -0.20997621       0.19053731       0.05090600
H        7.41231260       6.12880804      18.31887328       0.63301154      -0.23284642      -0.14871145      -0.23395975       0.09193609       0.06157111
H        1.65523448       5.50992907       4.82646577      -0.16286612       0.08332853       0.10620570      -0.05046619       0.09948756       0.08827866
H        6.59242629       4.76556381      17.67389557       0.26145934      -0.75792590       0.11027134      -0.09953654      -0.09550277       0.04039704
H        0.84583835       4.20486421       4.03798062       0.46988320       0.55520297       0.26830461      -0.06945344       0.00458167       0.17320303
H        5.90174395       5.87141724      18.91595367       0.10819942      -0.61758112      -0.31803529      -0.09289874       0.02242927      -0.15501029
C        2.65264882       3.60560879       4.90300379       0.34572395      -0.66449952       0.18679362      -0.30306238       0.38985396      -0.53529329
C        5.98820458       6.63124589      16.92144184       0.24203906       0.53432775      -0.31859259      -0.40259882      -0.22289331      -0.31357944
Pb       5.05041458      16.65576403       9.65407298      -0.28915670      -0.22970036      -0.21135503      -1.07174923       1.19059696       1.15373190
Pb       0.80096236      16.68049270       9.38176900       0.06325692      -0.09890956       0.42711502       1.20382255       0.03111971       0.27218412
N        1.79179002       4.65028136       4.23466476      -1.44693730      -0.39534073      -0.34487646       0.23547081      -0.16354392       0.45286311
N        6.51061052       5.73231242      18.01731863      -1.12578408       1.37040040       0.76421995       0.06839934       0.36037861      -0.52384737
I        5.08591634      10.24264889       6.28590325       0.15428916       0.28322495      -0.06945453       1.85369107       0.29296374       0.33287868
I        2.79521096      15.43185987       7.35838184       0.17914067      -0.14579768       0.22585494       0.49947587      -0.27401975      -0.00282026
I        5.15655922      10.24462018       1.85487446      -0.12919882       0.22924571      -0.19175093       1.30494706      -1.12017495      -0.71767795
I        2.82335988      15.37473485       3.14858257       0.17810439       0.03232253       0.01755058       0.72680611      -1.22197389      -1.50221975
I        6.66889113      14.10529850       0.74883828       0.01345215      -0.14894782      -0.03537329       1.08596708       0.72419188      -2.35245265
I        1.18696936      11.70431613       4.11806794      -0.01110426      -0.21434889       0.06352995       0.44544862      -3.63519634      -0.34018337
H        2.15233094      10.22072195       8.94269980       0.10927645       0.04350452       0.32370775      -0.00001076      -0.08440059       0.13284520
H        5.91902742      14.34225123       6.00245764       0.68623714      -0.21074429      -0.87319148      -0.13774891       0.10738067       0.01445310
H        0.62092386      11.48409438       8.80429584      -0.09684812       0.26153388       0.19755320       0.14414821      -0.02460496      -0.00635919
H        7.47414687      13.73271561       5.19371187       0.01202264      -0.13222868       0.41071455      -0.07338642       0.15745206       0.00665434
H        2.21936604      11.74542003       7.65293818       0.02776505      -0.17035319      -0.16354529       0.09302897       0.05404963       0.06809957
H        6.78412346      15.25638098       4.67696658      -0.58382710      -0.26911862      -0.32285341      -0.04880177       0.05708906       0.11959128
H        3.45180991      12.09038233       9.78839620       0.98578813      -0.26131342       0.22664375      -0.02714508      -0.08678080       0.11448794
H        6.18779093      13.59611749       3.09479544       0.24018294      -0.88992681      -0.46044243       0.31713230      -0.00796366       0.13232186
H        1.93827281      12.10199435      10.65204879       0.54959088       0.35609750      -0.09335682       0.10138668       0.16712028       0.20686379
H        4.78307879      13.84553470       3.97246461       0.35421628      -0.41470762       0.09060805      -0.00294551       0.09903356      -0.12357039
H        2.33826269      13.40676138       9.43798312      -0.09182904      -0.70519119       0.09556222      -0.09304443      -0.15040669      -0.04734441
H        5.64381701      12.37656751       4.38436901       0.55303494       1.29804949      -0.82577546       0.16775739      -0.01845548      -0.11017836
C        1.81474280      11.38231156       8.72922353       0.30287803      -0.01824466      -1.07057572      -0.55902517      -0.29069081      -0.18925432
C        6.51457733      14.24052547       5.04917313      -0.02560276       0.05173276       1.23501511      -0.20321540       0.17569511      -0.04868198
Pb       3.22542958       9.08313555       4.13032566      -0.21084532      -0.05157659      -0.02504483       1.49210218       0.47096134       1.16070259
Pb       7.12366886       8.91612549       4.01095187       0.11090551       0.13823467       0.05592651      -1.31754616      -1.53047285       0.90418527
N        2.45016073      12.32990556       9.69060317      -1.75236925       0.56274026       0.27983622      -0.05235408      -0.10963335      -0.54297869
N        5.75637396      13.41049668       4.06370294      -1.34974328       0.45198520       0.98340904      -0.41027104       0.23466960      -0.73309417
I       14.60047603       2.78371389       2.54964907       0.22241646      -0.07427716      -0.09873635      -1.62759184       0.41318834      -0.79294012
I        9.00121342       7.73205893       1.70881963       0.02047899      -0.06432668      -0.09754584       1.61768210       0.32141447       1.40000606
I       14.86016546       2.96832361       6.85984398       0.03803563       0.09993933       0.09581776      -0.02907320       2.01567810       0.32948489
I        8.98482679       7.44044683       6.07181396       0.14313243      -0.22943173       0.09119554      -1.13304934       0.41189562       0.72807416
I       12.80808218       6.39538310       3.56660760       0.42330269      -0.05284170      -0.03893173      -1.02150931       1.30815513       1.72236850
I       10.84047954       3.99459853       9.01452366      -0.19466940      -0.08565079       0.09169378       2.32101045      -2.77108229      -0.97766851
H       11.25631852       4.23162602       5.13329411      -0.20398640      -0.13110708      -0.72389375       0.12596320      -0.17665302       0.20240873
H       13.87855226       6.81905047      15.59121417      -0.18531811      -0.01327631      -0.11287046       0.05333321      -0.15238899       0.07379374
H        9.85829111       3.09302387       5.47965843      -0.72109793      -0.26926663      -0.02321028       0.00002468       0.01328785       0.11299200
H       12.50504376       6.17288433      16.66470422      -0.37949333      -0.07748247      -0.21017238      -0.13203556      -0.24045143      -0.10330803
H       10.89145696       2.76615538       3.87962779       0.23257889      -0.63834301       0.27985319       0.18936776       0.10559239       0.21583446
H       13.40583996       7.70480695      17.08091260      -0.02751658       0.06811435       0.29371126       0.03546039       0.12776330       0.24345616
H        8.65892474       3.89379621       3.46479106       0.25272510       0.38016329       0.62707639      -0.02988396       0.09278154       0.06177078
H       14.72541812       4.97554208      16.97367956       0.01352529      -0.40544997      -0.03851960      -0.22911005      -0.07751324       0.32872946
H        9.98806476       4.64530925       2.85434014       0.20683310       0.18012212       0.38752902      -0.12007377      -0.18958388       0.20954853
H       14.15617052       5.73041761      18.41707609       0.24898892      -0.23544377      -0.18619314      -0.08654064       0.02547429      -0.16257488
H        9.34356807       5.31837338       4.30003195      -0.40071258      -0.29647206      -0.44699513      -0.13695069       0.04253751      -0.02166801
H       15.39923144       6.45080534      17.48572426       0.48611735      -0.21172254       0.30736665      -0.10020076      -0.01482241       0.12244192
C       10.44547182       3.54230584       4.62458880       0.23812405       0.92940200      -0.34495992       0.32310090      -0.03734058       0.42209139
C       13.47849614       6.71593454      16.62636891       0.80107045      -0.61776530      -0.00201816      -0.21251038       0.17651812      -0.42039433
Pb      12.84196408      16.62174860       9.17124000       0.34205016       0.02703726       0.03739453      -0.11188041      -0.53538392      -1.87657654
Pb       9.02960419      16.58086592       9.25578244      -0.16461736       0.05722452       0.07408366       1.95282610       0.25215313      -1.16179610
N        9.53405202       4.42954650       3.77441703       0.49743307      -0.05283607       0.39203113      -0.58150478      -0.40641173       0.28588598
N       14.51516085       5.87418900      17.42752724      -0.89407524       1.30378485       0.02269499      -0.24041214      -0.30165198       0.71008196
I       13.17888953      10.09015730       6.19856873      -0.03495725       0.04700519      -0.24643708       1.01106523      -1.44423344       0.99474547
I       10.91627993      15.19233051       6.98448117      -0.03926672      -0.02804298       0.12191227      -2.64621768      -0.94238992      -2.93705525
I       12.78066291      10.13005990       1.56034024       0.08948861       0.14421790       0.14652062      -1.24388138       1.31796224      -0.78670793
I       10.91843895      15.39096080       2.76233901      -0.13024878      -0.43922408       0.41808811       1.11296021      -0.61691586      -2.17070634
I       14.83732940      13.88919733       0.80519006      -0.18262811      -0.07995669      -0.16997518       2.99716156      -0.10646756       0.85263639
I        9.04164616      11.47328429       4.01064131       0.02788323       0.24318664       0.04209824       3.71309918       1.10008111       0.73089315
H        9.65798189      10.39306933       8.81290923       0.07969987       0.48843323       0.10476742       0.05015370      -0.00801343      -0.00079016
H       13.82963172      13.93229764       5.92565232      -0.11430391       0.34200566       0.11049263      -0.05639017      -0.06227091       0.04030527
H        8.86030389      11.74875440       7.94434401      -0.67589938       0.72332440       0.19075469       0.07520531      -0.12990510       0.03209369
H       15.33036007      13.23211371       5.20411290      -1.38222046       0.57655961      -0.42609251       0.02448595      -0.00757309      -0.08512034
H       10.61498556      11.33166360       7.58986635      -0.70808922      -0.07915906       0.44622035      -0.10803767       0.05113657       0.21007855
H       14.65803235      14.78158028       4.55274688      -0.00428174       1.04902369      -0.32906003      -0.12545635       0.00339597      -0.05975850
H       11.36261232      11.91428937       9.68578564      -0.78040354       0.54070282      -0.45383029      -0.02670817       0.05612659       0.12270439
H       14.09451689      12.81417513       3.18200830      -0.31419012       0.23205172       0.50122513      -0.13452561       0.07672102      -0.12002596
H        9.91663440      12.39362176      10.31597431      -0.29239688      -0.16983236      -0.26087786       0.01690648      -0.04352320      -0.30506764
H       12.67892069      13.57615229       3.66853996      -0.07786342       0.16792818       0.37552939      -0.07390052      -0.10769677      -0.17398702
H       10.53313850      13.31774141       9.05252821       0.04193515      -0.86445308       0.00487135      -0.13687021      -0.03569385       0.04101202
H       13.28085252      12.21459116       4.48856598      -0.61049345      -1.54363601       0.61717398      -0.00642783       0.07103387       0.00365531
C        9.80481887      11.41540940       8.40317260       1.45610185      -1.36650983      -1.33251303       0.25285455       0.57598371       0.81981364
C       14.37669475      13.84351739       4.98739063       1.30827530      -1.33044266       0.95851773       0.11237901       0.36878633      -0.01225279
Pb      11.06184126       8.83231692       3.94953058       0.10609591       0.22109973       0.08513244       1.41120561      -1.20796263      -1.43135695
Pb      15.14378208       8.95270146       3.82702927      -0.52926144       0.02235266      -0.08623171       0.44715337      -0.74180141       1.84021317
N       10.40869820      12.31659273       9.39549278       0.97265223       0.66516685       1.11830569      -0.35080812       1.09802613      -0.55143229
N       13.52337569      13.07418483       4.04774480       1.10242394       0.63178961      -1.68519618      -0.56975531       0.13454930       0.29651141
I        6.76873784       2.68593106      11.48411873       0.25399611      -0.05393852       0.02389701       0.14642906       0.37494597      -0.05159468
I        1.33255911       7.38597069      10.66485580      -0.06106775       0.20907747       0.11709423      -2.43922747       1.49241902      -1.34748572
I        7.29112884       3.01134770      15.89580005      -0.13502788      -0.27340480      -0.04247994      -0.57868305      -0.20643047      -1.24505710
I        1.38456356       7.44704018      14.94248997       0.04703354       0.05152033       0.02983826      -0.04368063      -1.47540106       0.14555121
I        5.56641308       6.32605825      12.63164189      -0.26137748       0.21603862       0.04017922      -1.33781964      -0.64416633       3.00667338
I        2.96629712       3.87390500       0.66540425      -0.04811390       0.18731275       0.06830977       1.18111534       1.55587509      -1.37779299
H        3.73752319       3.93906222      14.09453657      -0.55885222       0.10932660       0.12018282       0.05043995       0.01610433      -0.01225850
H        4.99014099       7.58912290       8.94392183      -0.03915157       0.00026322      -0.12704092       0.01555925       0.08616059       0.01788679
H        1.99257769       3.27845847      14.41242624       0.07908073      -0.04139808       0.07659215      -0.10113650       0.16040516       0.20788222
H        6.36968024       7.37030565       7.46375415      -0.46530214       0.13425566       0.03122572      -0.03434301      -0.00446633       0.04382021
H        3.02520695       2.71709258      12.96592157      -0.26808265      -0.24842325       0.05496047       0.16635857       0.06096208       0.02350736
H        4.74480762       6.08880301       7.57820041       0.71862788       0.48701208       0.10545789      -0.08031401      -0.03756071       0.10963708
H        2.81414645       4.99468906      11.95517583       0.29431927      -0.24115908      -0.26146120       0.19898670      -0.05526744       0.03854242
H        7.30787323       6.30709256       9.26554713      -0.85575537      -0.24231080      -0.17540734       0.04197624      -0.11967064      -0.08751334
H        1.93070440       5.50198395      13.29240661       0.09908729       0.17459229       0.21001009      -0.14170151      -0.12598618       0.16279792
H        6.62982754       4.96799716       8.39994985      -0.14135609       1.01140381       0.44496531      -0.01864817       0.15025123       0.01416018
H        1.28816955       4.31147594      12.27343326       0.09516090      -0.16995607      -0.07782356       0.00222057      -0.20814200      -0.05255973
H        5.97864452       5.48923878       9.86937338      -0.86691480       0.11017150       0.81136151      -0.11254857      -0.03124695       0.08692652
C        2.76529755       3.56935195      13.64116033       0.52142716       0.45861465      -0.79183229       0.35404660       0.12239714      -0.49530019
C        5.53026830       6.82221998       8.16928044       0.15351941      -1.03936582       0.56135646      -0.18801145      -0.27546355       0.04398092
Pb       4.77246946      16.69137695       0.80358784      -0.01164868       0.00818893      -0.00483049       0.44233615       1.63385431       1.90210938
Pb       0.82400028      16.78642103       1.16069281      -0.52691672      -0.07122114      -0.22534107      -1.43534239       0.52375745      -0.57515686
N        2.18682245       4.65407434      12.72799814      -0.27807708      -0.10693844       0.75425920      -0.18352592      -0.70246003       0.75100305
N        6.38375870       5.85007029       8.99576568       1.58860427      -0.45559509      -1.59058076       0.37157062      -0.19135645      -0.09126394
I        5.27908063      10.37531210      14.97689035      -0.00445990       0.01964114       0.04906268       0.32079581       1.11970295       0.21411534
I        2.80143741      15.21963355      16.28135244       0.35495729      -0.17837858      -0.19134844      -0.07025498      -0.23182072      -0.23719390
I        5.40690615      10.38728814      10.72430954      -0.10846336       0.08281291      -0.26817743      -0.38557034       0.52369241       1.45200065
I        3.10644790      15.13573057      11.65125006      -0.22280601       0.02721114       0.03669001      -2.60624992       1.06220077       0.91573692
I        6.97462073      14.03076154       9.59027533       0.09050637       0.03448352      -0.12630331       0.45392799      -1.70887763      -0.93084033
I        1.30785064      11.34970002      12.90929188       0.06133931       0.11472751      -0.04970732      -1.03687539       2.03431865      -1.25726962
H        1.70135822      10.15408671      18.27566408      -0.08409916      -0.45898428       0.50331873      -0.26874226      -0.03894648      -0.03993093
H        5.99635191      14.43426332      14.88352055      -0.29285190      -0.05253021       0.53003838      -0.01354903       0.19602356      -0.01893346
H        1.04703246      11.41451144      17.06083146      -0.09991524       0.18400677      -0.07503273      -0.07174306       0.13034632       0.01327192
H        7.56420571      13.72653544      14.30267825       0.15403259      -0.09727815       0.21013580       0.13042096       0.04722967       0.00678102
H        2.68200896      10.49107318      16.73047337      -0.40416010       0.36791015       0.62435302       0.09151548      -0.30019197      -0.28779495
H        6.89797225      15.19223681      13.52083129       0.05215863       0.17376264       0.18513056      -0.07088483      -0.06559701      -0.01415062
H        3.51572857      11.72953190      18.74042817       0.37819297      -0.41546721       0.14770145       0.15126206       0.22685793       0.03615231
H        6.43646484      13.32535707      12.11134558      -0.16602090       0.28695431       0.45958843      -0.14235229      -0.04419341      -0.07192486
H        2.05693145      12.43856243      19.12184524      -0.39038153       0.23261066       0.70451490      -0.02935854       0.20012313      -0.03319679
H        4.98103233      13.87914780      12.76491819       0.61227661      -0.11975800       0.02924865      -0.01412849      -0.05674454      -0.11350415
H        2.92150857      12.93184605      17.69074749      -0.53111085      -0.12548143       0.07130343       0.10726167      -0.20879118      -0.11384643
H        5.69411317      12.47689948      13.34043722       0.04433572      -0.26160491       0.37069113      -0.12043556       0.13532344      -0.22452078
C        1.96208891      10.97910575      17.55636097       0.47959261       0.00045232      -1.27084873      -0.51608581      -0.75485349      -0.35987553
C        6.64312063      14.24976405      14.03477725       0.23513636       0.15379725      -1.05921142      -0.29349878      -0.14109367       0.58183847
Pb       3.46899507       8.96550796      12.71989982      -0.02047495      -0.31993527       0.20782479       0.41334651       0.98363089      -0.46558732
Pb       7.40632917       9.01779574      12.86719030      -0.06644467      -0.33026938      -0.04569401      -2.07101188      -2.59497040      -0.53819168
N        2.63342355      12.09658645      18.32145538       0.69747263       0.32779826      -0.91441504      -0.37289362      -0.47068810       0.70333988
N        5.91356902      13.43699703      13.01936555      -0.65158446      -0.04512637      -0.69728650       0.22729122      -0.17630312      -0.18724495
I       14.90371417       2.85887686      11.32434477       0.00127423      -0.11738442      -0.28175868       0.33098151       0.96720372      -0.92681425
I        9.24235028       7.77864202      10.56580581      -0.03387208      -0.08293747      -0.12906710       1.10529210      -0.14601414      -1.11418230
I       15.28462674       2.54438953      15.59221430      -0.11538546       0.25811571      -0.14646850       1.16161755       0.19251026       0.21869799
I        9.49081324       7.54224534      14.82703520       0.00253354      -0.05299052       0.16556405      -1.05498801      -2.46471181       0.43339859
I       13.07958925       6.49661568      12.44062611       0.22205456      -0.09400570      -0.01606669      -1.12190986      -0.23654001       2.10616645
I       10.80690379       3.89539876       0.33333329      -0.07975784      -0.02823463       0.01722847       0.59645786       0.17527180       1.93921607
H       11.67846887       3.90935838      13.35801650      -0.38820417      -0.32851127      -0.16512556      -0.01691527       0.06045093      -0.04671999
H       13.94491074       6.94180754       7.01525389      -0.40774545       0.03387087       0.63763376      -0.19264216      -0.24899542      -0.17978035
H       10.17059270       3.43067665      14.24029346      -0.08343785      -0.08978261       0.26444150      -0.03717834       0.15204914      -0.04815769
H       12.43427460       6.23928344       7.78438682       0.80054409       0.37437308       0.31277439       0.07607771       0.01979604       0.03788320
H       10.51228005       2.68157316      12.63821704       0.42166421      -1.37094056      -0.66743373      -0.14132874       0.10278076      -0.05309637
H       13.17806047       7.78166652       8.46671057      -0.04622159      -0.12183479      -0.45743022       0.26900642       0.01024867       0.09124754
H        8.85948835       4.27752728      12.26972174       0.24325691       0.49554131       0.86002946       0.05098570       0.00902599      -0.06195351
H       14.26877567       4.99527463       8.53834149      -0.07281067       1.52151948       1.18017046      -0.07591142       0.10966529      -0.06900965
H       10.13982428       4.90267268      11.62232148       1.01668401       0.33758248      -0.43132525       0.01223208       0.07324634      -0.02775971
H       13.89764555       6.10516645       9.95330219       0.02841592      -0.27756853      -0.39132591       0.12693921      -0.10948602       0.04683708
H        9.73039941       5.50714591      13.16512021      -0.40860102       0.81418162       0.24441843      -0.07443185       0.16662041      -0.02874606
H       15.24303140       6.40555191       8.96725658       0.22293190       0.16571017      -0.08419369       0.13526085      -0.18620315      -0.09931963
C       10.61467867       3.56604912      13.24507237       0.04670556       1.77997959       0.60707805      -0.16462492      -0.16924892       0.25872104
C       13.38953238       6.81174886       7.97559880      -0.37339614       0.34239096      -0.49030167       0.20788597       0.28643259      -0.23540147
Pb      12.78722228      16.48188959       0.57495660      -0.04701751       0.12955713      -0.14515843      -2.05700621      -0.72270863       0.65020969
Pb       8.85619491      16.60609925       0.72685713      -0.18674755       0.09285027      -0.11081583       2.55959711      -1.77036149       0.80286991
N        9.79901000       4.66869980      12.56927460      -0.95743626      -1.71681291      -0.70912452      -0.55337323      -0.41688984       0.58206464
N       14.25296588       6.04163000       8.92107928      -0.12846982      -2.12917816      -0.66250094      -0.01147439       0.31912393      -0.11617819
I       13.49386127      10.42520232      14.82032915      -0.10818819       0.02581628      -0.01655998       0.81885654      -1.74565270       0.29895603
I       10.91501904      14.96726519      15.99535163       0.14827164      -0.29509766      -0.14361006      -1.88398528      -2.41040468       1.56278573
I       13.27107588      10.17750794      10.31029299       0.02215335       0.04464137       0.19161902       1.89836797       0.63852225       0.70036546
I       10.99551895      15.16343355      11.30833931       0.02748869      -0.11115833       0.37604934       0.12983703       1.45106413       0.81689827
I       14.84680367      13.97058033       9.34697510       0.04830546      -0.04632253      -0.21595432       2.52551659      -0.18859566      -2.95684216
I        9.21087067      11.51858495      12.63531244       0.09077723       0.42904548       0.16512918      -0.56637568      -0.12522607       1.44965269
H        9.46977500       9.97806161      17.15213322      -0.14125530      -0.60234225      -0.06492693      -0.06129764       0.04128844       0.18684765
H       13.79257197      14.22610689      14.55924729       0.03143689      -0.19160847      -0.12280786       0.16933235       0.08253710      -0.09564911
H        8.54896469      11.48508571      16.75133317       0.46429389      -0.30108830      -0.06752180      -0.09202321      -0.06791676      -0.03435085
H       15.47371013      13.92580974      13.87769490      -0.10120053       0.26745219      -0.01865054      -0.13800223      -0.04325316       0.00779659
H       10.14433556      11.14397129      15.92677391       0.28934144       0.19444471       0.06760413      -0.07497121       0.00174392      -0.05862563
H       14.38714017      15.27380776      13.24816347       0.39951154       0.64453673      -0.22682536       0.00250637      -0.00805740       0.08565222
H       11.09259025      11.35388451      18.28448128       0.67289413      -0.32393567       0.27874303       0.10593533       0.12665027      -0.07305672
H       14.41277570      13.32516493      11.70624984       0.27842046      -0.08282217      -0.16731566      -0.09614815       0.10845788       0.14836010
H        9.56880447      11.65987908      18.94071348       0.07249149      -0.11289868       0.13387839      -0.21762864      -0.03620376       0.01204342
H       12.89171360      13.60685941      12.35759014       0.32760326      -0.11820545       0.03018946      -0.04461105       0.05585539       0.10245392
H       10.28554038      12.73555947      17.83506243       0.33379055       0.85855299      -0.16337795      -0.13457936       0.01667011      -0.00059457
H       13.81797735      12.34059696      12.99395548       0.03564762      -0.21350722      -0.12464160      -0.17699405      -0.11280161       0.05935407
C        9.56322505      11.03248159      16.86428008      -1.09344693       0.17770370       0.32680330      -0.21910774       0.12699397       0.58877405
C       14.44276179      14.26672002      13.66119937      -0.42596265      -1.06904749      -0.34371570       0.35269720       0.75000560       0.02496657
Pb      11.37242307       9.09808910      12.72964714       0.08845316      -0.02974601      -0.14440990      -2.00715435      -0.10328817      -1.89812255
Pb      15.38742120       8.88045682      12.69957555       0.05196633       0.10931061      -0.20248342      -1.04643648       0.48119753      -0.84793642