768
Lattice="25.625769195560288 0.1442251890105203 -0.06288156074118129 -0.08544278206367628 25.555723663810763 -0.05823012908242495 0.07213310111533067 -0.1299461261962401 25.66616038795785" Properties=species:S:1:pos:R:3:forces:R:3:momenta:R:3 pbc="T T T"
I        6.11779813       0.11907538       1.84076568      -0.07652292      -0.06428991       0.14369610       0.08041187       0.05837542      -0.95956036
I        5.35006486      11.64320662       8.28545705      -0.09133031      -0.01088543      -0.20185661      -0.99168153      -0.99988043      -0.01046538
I        5.03201870       9.16353181       4.43821853       0.01389835      -0.00882929      -0.03280083       0.95248802       0.82260044       1.05846691
I        5.60919806       2.72248825       5.36442291       0.13547242      -0.03127697      -0.02177377      -2.04752430       0.05959099      -0.56324384
I       25.41621906      11.99601243       8.47632346      -0.11729461      -0.09358099      -0.25764421       0.94308007      -0.39314843      -1.81715759
I       11.85077346      25.42189793       1.95067914      -0.28143156       0.13469410       0.12223966       1.37492300       0.46359755       1.53720641
I       11.63032897       2.72756779       5.49982697      -0.03416960      -0.08477645       0.09903438       0.00112022       1.01744976       2.26462358
I       24.94914287       9.17425505       4.43950389      -0.00075642       0.08628805       0.05006165       0.97921106      -0.99734959      -0.09948253
I        8.84949535      12.61652331      11.33218046      -0.15103781      -0.09992731      -0.06633872      -0.99034702       0.79071748       0.78078889
I        2.19607189       5.50453159       5.63437698       0.18509264      -0.02457424      -0.07140814      -1.94562626      -0.64783145      -0.02164316
I        2.28052674      25.33095339       4.45776356       0.12921920       0.26946197       0.05748174       0.04156954       1.64532330       2.53340147
I        8.81625615      11.90858049       5.18218948      -0.14592956       0.07795357      -0.01065297      -1.89284290       0.25416339       0.81400517
H        3.41955014       1.77701139       1.53262138      -0.15364166      -0.30982744       0.23456577       0.10056019       0.02484283      -0.13853549
H        7.68461871       3.36512453       1.57282630       0.19194849       0.14004507      -0.08086608      -0.02317536       0.05781019      -0.01156726
H        7.77728690       8.59424912       1.48594871       0.10344220       0.04307857      -0.15741560       0.00497698       0.05963461      -0.09727499
H        1.57611179       1.78010817       7.30179394      -0.48090094      -0.21419539      -0.39142915      -0.15372734      -0.04346045      -0.02702889
H        1.28075936       8.40699376       7.74963835       0.05614512      -0.37705552      -0.08315048       0.10217224       0.10972271       0.18686846
H        9.50476045       3.78312783       1.37791193       0.28920995       0.47024299       0.15931892      -0.12622506      -0.03825185       0.21468726
H        7.71526225       2.03001623       7.78944204       0.98934259       0.22324477       0.29851978       0.01831642       0.07720769      -0.15382598
H        3.34130382       1.91340846       7.37499428       0.91727151       0.10867830      -0.58251861       0.32539481       0.09723439       0.03716461
H        2.55371241       2.94843305       0.61442068      -0.37514704       1.08739557      -1.48634700      -0.13477655       0.03619419      -0.19874707
H        8.93052641       2.19329603       0.80651992      -0.25497546       0.14499260       0.18128448      -0.02023876       0.09283782      -0.03402405
H        7.97356650       9.34907504       3.30598110      -0.03176090      -0.08551124      -0.17114902       0.23659286       0.06226291       0.05667167
H        2.46510800       1.19527869       8.75445576       0.00638981       0.06393557      -0.26481893       0.03576001      -0.31619596      -0.13789547
H        2.31226944       2.74076255       3.53618540      -0.23241603      -0.29697434       0.29704388       0.16560021       0.04025078      -0.07379249
H        8.98179725       7.55431712       9.11017949       0.22918764      -0.25636579       0.34048115       0.08472120       0.09670058      -0.09921072
H        9.50102138      11.07295759       2.08989963       0.66548958       0.09552648      -0.03039013       0.06817369       0.09650970      -0.06381798
H        1.28975711       9.89484526       3.20651942       0.35856795      -0.20027106      -0.27514413      -0.00737720      -0.05388592      -0.21133094
H        1.54409163       3.91672754       2.53911081      -0.61779633       0.24989860       0.16878202      -0.16042572      -0.08110293      -0.02071681
H        8.16439169       8.76973891       9.93920614       0.01504091      -0.26777069       0.14460729       0.25197381      -0.04332228      -0.11019260
H        7.88291276      11.22253641       1.63448947      -0.34184580      -0.25964181       0.20141565       0.15887023       0.14249664      -0.18606107
H        1.73350072      10.98289804       1.88683423      -0.00550361      -0.43362443      -0.32722135      -0.04338666      -0.02314123       0.06936438
H        3.19381098       3.84702632       2.69136125       0.35947334       0.47676047       0.09496061      -0.16508703      -0.18697615       0.04896154
H        9.26486389       3.08531506       3.65673658      -0.10038707      -0.25671313      -0.08943789       0.02768527       0.13432384      -0.08178440
H        8.96744854      10.53792219       0.55021583       0.23928200      -0.01838201       0.40217616       0.10868751       0.03517872      -0.03606587
H        2.95486779      10.37272150       2.89911809       0.29210150      -0.15714067       0.38855681      -0.07604791      -0.24587164       0.06819867
C        2.21859628       8.96658837       7.73489306       1.40490483      -1.13329931       0.82149858       0.11159358       0.21308418       0.27844833
C        8.76141261       2.98826489       1.57761378      -0.50086054      -0.92075927      -0.32203765      -0.75988687      -0.15772920      -0.07270951
C        8.49014554       2.65798853       8.40800851      -0.38398301      -1.31164920       0.32355847       0.15203406      -0.22425124       0.16057858
C        2.43811480       1.93472987       7.93250396      -0.82957915       0.61028740       1.85994535       0.25556939       0.09901384      -0.37974761
Pb       5.57150136       5.88970390       4.90365513      -0.15253257      -0.05088400       0.13620923      -0.81078530      -0.11022765      -0.59338683
Pb       5.54434970      12.16086996       4.93477438      -0.03435630       0.17366492      -0.07751328      -1.56200285      -1.67101526      -1.18950746
Pb      24.77997192      12.27625111      11.55335229       0.07496508       0.39286248      -0.08051756       4.97333638       1.29092885      -1.17797608
Pb      24.77399566      12.41988198       5.22831885       0.09601084      -0.24108552      -0.03737698       0.49037247      -1.10574139      -0.12296205
N        2.35130566       3.26172149       2.63911484       0.95014081      -0.17398543       0.57452848      -0.27850399      -0.47501494      -0.05960786
N        9.01373572       8.56017825       9.37377335      -1.02395293       0.74342468      -0.56421297      -0.43711926       0.23185514       0.18612260
N        8.72800764      10.56143413       1.59684189      -0.61980692       0.17879869      -0.83172725       0.28714171       0.09867831      -0.03852085
N        2.05231320      10.08725429       2.43140331      -0.73531301       0.28568314       0.30218364      -0.81789635      -0.00381241       0.07331364
I        6.05747409       6.21273493       8.28022311      -0.08008442       0.19287212       0.06576727      -1.05235333      -1.88236194      -1.06277309
I        5.11162577       5.60294574       1.98350022      -0.08718549      -0.14858354      -0.30332373      -2.98443364       0.31441782       1.53150786
I        4.91022502       2.80771517      10.80599140       0.14642988      -0.26892229       0.12191887       0.09215331       0.44129605       0.15914282
I        6.03826776       8.98969868      24.38899207       0.12490490       0.19307446       0.10678937       0.35913394       0.66008141      -0.99768875
I       25.13025842       5.32558738       1.80921795       0.02413438       0.03083223      -0.05966433      -0.93056916      -0.92252619      -0.14738271
I       11.61791994       6.45637260       8.24044200      -0.15722684      -0.19375615      -0.04722542      -3.08570171       0.05769123       0.50834849
I       11.40246098       9.01823865      24.72897109       0.13103882       0.20820489       0.18928733       0.33888199       0.24353356       3.33081149
I       25.14834571       2.91346200      10.62531308      -0.02452044      -0.18649312       0.19207245      -0.88946556      -1.17572718       1.40967980
I        8.63145149       5.80044595       4.62280787       0.10466915      -0.08159448      -0.09663145       0.20218487      -0.06277684      -0.62452901
I        2.44516361      11.56588910      24.88318005       0.02542774       0.10838567      -0.01441190       1.09188958       0.08130034       0.41987646
I        2.41655529       6.40286290      10.90502600       0.20513960       0.09942246       0.04869772       1.68512385      -2.43635517      -0.66716816
I        9.00769196       5.27810822      24.26462491      -0.28889468       0.06290221       0.02548667      -2.47196939      -1.62153101      -0.78598890
H        3.14839068       8.37495426       7.55943579      -0.72807197      -0.24038291      -0.16171636      -0.04121053      -0.03727627       0.27839865
H        7.93512271       9.18799907       7.57355547       0.52879112       0.07751069       0.43819921       0.07441125      -0.10878986      -0.03683703
H        8.14862560       2.76606639       9.49603423      -0.35578814       0.43037376       0.05984655      -0.13381490      -0.06743003       0.00202004
H        3.09628217       7.96409176       2.27875304       0.02291676       0.26999452       0.05011264       0.06193037      -0.20810025       0.06005211
H        1.56136112       1.68670741       1.49341233       0.96762153       0.42772468      -0.36415504       0.11098554       0.00028480       0.17463841
H        8.91318352      10.46978158       8.44031762       0.19836845      -0.28504015      -0.38987162       0.14096440       0.03794923      -0.03948000
H        9.64670821       8.76484282       2.34784991      -1.25282267       0.37824806       0.21259033      -0.13461947       0.01839875      -0.06619643
H        1.15117890       8.32898305       1.40010411       0.38724402       0.32206880       0.29654278       0.00681784       0.20660817       0.13436456
H        2.19873528       9.71152950       7.00251824      -0.21992149       1.20807005      -1.18525789      -0.12464445       0.11992651       0.03832724
H        9.74186627       9.10642726       7.47799613       0.55420082       0.15247330      -0.54429244      -0.01717928       0.07356949      -0.02615219
H        9.59196900       2.22438399       8.51206571      -0.16711286      -0.40826871      -0.57505486      -0.17996293       0.08071429      -0.02597120
H        2.94268533       9.28694001       0.56105482      -0.04794975      -0.07708010       0.05931464       0.10861613      -0.02056168      -0.10768702
H        1.56195245      10.19407774       9.23916180       0.47283181      -0.16902435       0.27119184       0.04363855      -0.07350328      -0.21353056
H        9.87273579       1.70203037       2.84099510      -0.01545137      -0.39106636       0.26168837       0.12545936      -0.12701012      -0.07751326
H        7.80923350       4.55844728       7.94196907      -0.57240495       0.45698767       0.16832427      -0.05962162       0.03024802       0.07513593
H        2.11339672       4.01152200       7.81888445      -0.44204450       0.52406405       0.01625971       0.08680990      -0.11865929       0.18114298
H        3.22830903      10.23520284       9.05947811       0.52609757       0.01597949       0.27703586      -0.05234000      -0.04178844      -0.11786246
H        8.15114296       1.84769877       3.28459704       0.24412867      -0.25872241      -0.12831700      -0.09281492      -0.00377696       0.06152525
H        8.61779022       3.85729019       6.69643924      -0.02988781      -0.13135266      -0.31583261       0.08446538      -0.06506108       0.11024337
H        3.16099476       3.59400503       9.09095155      -0.65334328      -0.21741214      -0.10861745       0.16289529      -0.01190486      -0.04308415
H        2.47198325       8.85440246       9.79611843       0.25169734       0.11655251       0.31022140      -0.19547655      -0.02828256      -0.08936408
H        9.82834509       8.76995626      10.01872620      -0.07127973      -0.21001177      -0.59022474       0.01236733       0.05123227      -0.12644938
H        9.48731505       4.46112826       7.95892026      -0.59009382      -0.25854011       0.03924843      -0.17341270      -0.02268644      -0.01694421
H        1.45099927       3.27291343       9.30215243       0.17267761       0.13111237      -0.45776468      -0.13503946       0.18354235      -0.09501124
C        2.47608437       2.34586887       1.47386008      -0.79940877      -1.67315884       0.52128830      -0.07619623       0.04073865      -0.04524947
C        8.90755385       9.40419878       8.08789507      -0.59154438       0.08075962       1.22746122       0.27474050      -0.18835585      -0.19130199
C        8.48694973       9.20848353       2.21355281       1.32106756      -0.37483870       0.25293003       0.28394382      -0.22468724       0.13596232
C        2.32622458       8.84295387       1.61985205      -0.25740687      -0.27442168      -0.58757398      -0.16736226      -0.13748011       0.20418263
Pb       5.48381451      12.24428478      11.23966027       0.12111605       0.20282677       0.22923710       0.95353539       2.67719836      -4.33247692
Pb       5.74815188       5.88466173      11.34953253       0.04603911      -0.10116559       0.00495905      -0.11946663      -1.73783487       0.52667290
Pb      24.82015398       5.90630548       4.95354508       0.01799881       0.31125034       0.28075686       3.32334615       2.43789180      -0.66682710
Pb      25.06276368       6.02602625      11.52616582      -0.24003209      -0.34837402      -0.35388194       0.55072616      -0.17617207       1.88378496
N        2.42151968       9.59666669       9.07261491      -1.62584813       0.40786960      -0.28004518       0.43138383       0.26999134       0.33043019
N        9.02056666       2.33030398       2.93189396       0.11662467       1.09239476       0.03145583      -0.68113477       0.21551952      -0.11816342
N        8.59885386       3.93548258       7.71943852       1.42798718       1.05946391       0.08491502      -0.70828121       0.09026067       0.10775467
N        2.24304554       3.31758892       8.58701923       1.22980624      -0.93685010      -0.16613695       0.12817880       0.33770179      -0.13496917
I        6.15386468       0.05410232      14.67384587      -0.07652292      -0.06428991       0.14369610       0.08041187       0.05837542      -0.95956036
I        5.38613141      11.57823356      21.11853724      -0.09133031      -0.01088543      -0.20185661      -0.99168153      -0.99988043      -0.01046538
I        5.06808525       9.09855875      17.27129872       0.01389835      -0.00882929      -0.03280083       0.95248802       0.82260044       1.05846691
I        5.64526461       2.65751519      18.19750310       0.13547242      -0.03127697      -0.02177377      -2.04752430       0.05959099      -0.56324384
I       25.45228561      11.93103937      21.30940365      -0.11729461      -0.09358099      -0.25764421       0.94308007      -0.39314843      -1.81715759
I       11.88684001      25.35692487      14.78375933      -0.28143156       0.13469410       0.12223966       1.37492300       0.46359755       1.53720641
I       11.66639552       2.66259473      18.33290716      -0.03416960      -0.08477645       0.09903438       0.00112022       1.01744976       2.26462358
I       24.98520942       9.10928199      17.27258408      -0.00075642       0.08628805       0.05006165       0.97921106      -0.99734959      -0.09948253
I        8.88556190      12.55155025      24.16526065      -0.15103781      -0.09992731      -0.06633872      -0.99034702       0.79071748       0.78078889
I        2.23213844       5.43955853      18.46745717       0.18509264      -0.02457424      -0.07140814      -1.94562626      -0.64783145      -0.02164316
I        2.31659329      25.26598033      17.29084375       0.12921920       0.26946197       0.05748174       0.04156954       1.64532330       2.53340147
I        8.85232270      11.84360743      18.01526967      -0.14592956       0.07795357      -0.01065297      -1.89284290       0.25416339       0.81400517
H        3.45561669       1.71203833      14.36570157      -0.15364166      -0.30982744       0.23456577       0.10056019       0.02484283      -0.13853549
H        7.72068526       3.30015147      14.40590649       0.19194849       0.14004507      -0.08086608      -0.02317536       0.05781019      -0.01156726
H        7.81335345       8.52927606      14.31902890       0.10344220       0.04307857      -0.15741560       0.00497698       0.05963461      -0.09727499
H        1.61217834       1.71513511      20.13487413      -0.48090094      -0.21419539      -0.39142915      -0.15372734      -0.04346045      -0.02702889
H        1.31682591       8.34202070      20.58271854       0.05614512      -0.37705552      -0.08315048       0.10217224       0.10972271       0.18686846
H        9.54082700       3.71815477      14.21099212       0.28920995       0.47024299       0.15931892      -0.12622506      -0.03825185       0.21468726
H        7.75132880       1.96504317      20.62252223       0.98934259       0.22324477       0.29851978       0.01831642       0.07720769      -0.15382598
H        3.37737037       1.84843540      20.20807447       0.91727151       0.10867830      -0.58251861       0.32539481       0.09723439       0.03716461
H        2.58977896       2.88345999      13.44750087      -0.37514704       1.08739557      -1.48634700      -0.13477655       0.03619419      -0.19874707
H        8.96659296       2.12832297      13.63960011      -0.25497546       0.14499260       0.18128448      -0.02023876       0.09283782      -0.03402405
H        8.00963305       9.28410198      16.13906129      -0.03176090      -0.08551124      -0.17114902       0.23659286       0.06226291       0.05667167
H        2.50117455       1.13030563      21.58753595       0.00638981       0.06393557      -0.26481893       0.03576001      -0.31619596      -0.13789547
H        2.34833599       2.67578949      16.36926559      -0.23241603      -0.29697434       0.29704388       0.16560021       0.04025078      -0.07379249
H        9.01786380       7.48934406      21.94325968       0.22918764      -0.25636579       0.34048115       0.08472120       0.09670058      -0.09921072
H        9.53708793      11.00798453      14.92297982       0.66548958       0.09552648      -0.03039013       0.06817369       0.09650970      -0.06381798
H        1.32582366       9.82987220      16.03959961       0.35856795      -0.20027106      -0.27514413      -0.00737720      -0.05388592      -0.21133094
H        1.58015818       3.85175448      15.37219100      -0.61779633       0.24989860       0.16878202      -0.16042572      -0.08110293      -0.02071681
H        8.20045824       8.70476585      22.77228633       0.01504091      -0.26777069       0.14460729       0.25197381      -0.04332228      -0.11019260
H        7.91897931      11.15756335      14.46756966      -0.34184580      -0.25964181       0.20141565       0.15887023       0.14249664      -0.18606107
H        1.76956727      10.91792498      14.71991442      -0.00550361      -0.43362443      -0.32722135      -0.04338666      -0.02314123       0.06936438
H        3.22987753       3.78205326      15.52444144       0.35947334       0.47676047       0.09496061      -0.16508703      -0.18697615       0.04896154
H        9.30093044       3.02034200      16.48981677      -0.10038707      -0.25671313      -0.08943789       0.02768527       0.13432384      -0.08178440
H        9.00351509      10.47294913      13.38329602       0.23928200      -0.01838201       0.40217616       0.10868751       0.03517872      -0.03606587
H        2.99093434      10.30774844      15.73219828       0.29210150      -0.15714067       0.38855681      -0.07604791      -0.24587164       0.06819867
C        2.25466283       8.90161531      20.56797325       1.40490483      -1.13329931       0.82149858       0.11159358       0.21308418       0.27844833
C        8.79747916       2.92329183      14.41069397      -0.50086054      -0.92075927      -0.32203765      -0.75988687      -0.15772920      -0.07270951
C        8.52621209       2.59301547      21.24108870      -0.38398301      -1.31164920       0.32355847       0.15203406      -0.22425124       0.16057858
C        2.47418135       1.86975681      20.76558415      -0.82957915       0.61028740       1.85994535       0.25556939       0.09901384      -0.37974761
Pb       5.60756791       5.82473084      17.73673532      -0.15253257      -0.05088400       0.13620923      -0.81078530      -0.11022765      -0.59338683
Pb       5.58041625      12.09589690      17.76785457      -0.03435630       0.17366492      -0.07751328      -1.56200285      -1.67101526      -1.18950746
Pb      24.81603847      12.21127805      24.38643248       0.07496508       0.39286248      -0.08051756       4.97333638       1.29092885      -1.17797608
Pb      24.81006221      12.35490892      18.06139904       0.09601084      -0.24108552      -0.03737698       0.49037247      -1.10574139      -0.12296205
N        2.38737221       3.19674843      15.47219503       0.95014081      -0.17398543       0.57452848      -0.27850399      -0.47501494      -0.05960786
N        9.04980227       8.49520519      22.20685354      -1.02395293       0.74342468      -0.56421297      -0.43711926       0.23185514       0.18612260
N        8.76407419      10.49646107      14.42992208      -0.61980692       0.17879869      -0.83172725       0.28714171       0.09867831      -0.03852085
N        2.08837975      10.02228123      15.26448350      -0.73531301       0.28568314       0.30218364      -0.81789635      -0.00381241       0.07331364
I        6.09354064       6.14776187      21.11330330      -0.08008442       0.19287212       0.06576727      -1.05235333      -1.88236194      -1.06277309
I        5.14769232       5.53797268      14.81658041      -0.08718549      -0.14858354      -0.30332373      -2.98443364       0.31441782       1.53150786
I        4.94629157       2.74274211      23.63907159       0.14642988      -0.26892229       0.12191887       0.09215331       0.44129605       0.15914282
I        6.00220121       9.05467175      11.55591187       0.12490490       0.19307446       0.10678937       0.35913394       0.66008141      -0.99768875
I       25.16632497       5.26061432      14.64229814       0.02413438       0.03083223      -0.05966433      -0.93056916      -0.92252619      -0.14738271
I       11.65398649       6.39139954      21.07352219      -0.15722684      -0.19375615      -0.04722542      -3.08570171       0.05769123       0.50834849
I       11.36639443       9.08321172      11.89589089       0.13103882       0.20820489       0.18928733       0.33888199       0.24353356       3.33081149
I       25.18441226       2.84848894      23.45839327      -0.02452044      -0.18649312       0.19207245      -0.88946556      -1.17572718       1.40967980
I        8.66751804       5.73547289      17.45588806       0.10466915      -0.08159448      -0.09663145       0.20218487      -0.06277684      -0.62452901
I        2.40909706      11.63086217      12.05009985       0.02542774       0.10838567      -0.01441190       1.09188958       0.08130034       0.41987646
I        2.45262184       6.33788984      23.73810619       0.20513960       0.09942246       0.04869772       1.68512385      -2.43635517      -0.66716816
I        8.97162541       5.34308129      11.43154471      -0.28889468       0.06290221       0.02548667      -2.47196939      -1.62153101      -0.78598890
H        3.18445723       8.30998120      20.39251598      -0.72807197      -0.24038291      -0.16171636      -0.04121053      -0.03727627       0.27839865
H        7.97118926       9.12302601      20.40663566       0.52879112       0.07751069       0.43819921       0.07441125      -0.10878986      -0.03683703
H        8.18469215       2.70109333      22.32911442      -0.35578814       0.43037376       0.05984655      -0.13381490      -0.06743003       0.00202004
H        3.13234872       7.89911870      15.11183323       0.02291676       0.26999452       0.05011264       0.06193037      -0.20810025       0.06005211
H        1.59742767       1.62173435      14.32649252       0.96762153       0.42772468      -0.36415504       0.11098554       0.00028480       0.17463841
H        8.94925007      10.40480852      21.27339781       0.19836845      -0.28504015      -0.38987162       0.14096440       0.03794923      -0.03948000
H        9.68277476       8.69986976      15.18093010      -1.25282267       0.37824806       0.21259033      -0.13461947       0.01839875      -0.06619643
H        1.18724545       8.26400999      14.23318430       0.38724402       0.32206880       0.29654278       0.00681784       0.20660817       0.13436456
H        2.23480183       9.64655644      19.83559843      -0.21992149       1.20807005      -1.18525789      -0.12464445       0.11992651       0.03832724
H        9.77793282       9.04145420      20.31107632       0.55420082       0.15247330      -0.54429244      -0.01717928       0.07356949      -0.02615219
H        9.62803555       2.15941093      21.34514590      -0.16711286      -0.40826871      -0.57505486      -0.17996293       0.08071429      -0.02597120
H        2.97875188       9.22196695      13.39413501      -0.04794975      -0.07708010       0.05931464       0.10861613      -0.02056168      -0.10768702
H        1.59801900      10.12910468      22.07224199       0.47283181      -0.16902435       0.27119184       0.04363855      -0.07350328      -0.21353056
H        9.90880234       1.63705731      15.67407529      -0.01545137      -0.39106636       0.26168837       0.12545936      -0.12701012      -0.07751326
H        7.84530005       4.49347422      20.77504926      -0.57240495       0.45698767       0.16832427      -0.05962162       0.03024802       0.07513593
H        2.14946327       3.94654894      20.65196464      -0.44204450       0.52406405       0.01625971       0.08680990      -0.11865929       0.18114298
H        3.26437558      10.17022978      21.89255830       0.52609757       0.01597949       0.27703586      -0.05234000      -0.04178844      -0.11786246
H        8.18720951       1.78272571      16.11767723       0.24412867      -0.25872241      -0.12831700      -0.09281492      -0.00377696       0.06152525
H        8.65385677       3.79231713      19.52951943      -0.02988781      -0.13135266      -0.31583261       0.08446538      -0.06506108       0.11024337
H        3.19706131       3.52903197      21.92403174      -0.65334328      -0.21741214      -0.10861745       0.16289529      -0.01190486      -0.04308415
H        2.50804980       8.78942940      22.62919862       0.25169734       0.11655251       0.31022140      -0.19547655      -0.02828256      -0.08936408
H        9.86441164       8.70498320      22.85180639      -0.07127973      -0.21001177      -0.59022474       0.01236733       0.05123227      -0.12644938
H        9.52338160       4.39615520      20.79200045      -0.59009382      -0.25854011       0.03924843      -0.17341270      -0.02268644      -0.01694421
H        1.48706582       3.20794037      22.13523262       0.17267761       0.13111237      -0.45776468      -0.13503946       0.18354235      -0.09501124
C        2.51215092       2.28089581      14.30694027      -0.79940877      -1.67315884       0.52128830      -0.07619623       0.04073865      -0.04524947
C        8.94362040       9.33922572      20.92097526      -0.59154438       0.08075962       1.22746122       0.27474050      -0.18835585      -0.19130199
C        8.52301628       9.14351047      15.04663300       1.32106756      -0.37483870       0.25293003       0.28394382      -0.22468724       0.13596232
C        2.36229113       8.77798081      14.45293224      -0.25740687      -0.27442168      -0.58757398      -0.16736226      -0.13748011       0.20418263
Pb       5.51988106      12.17931172      24.07274046       0.12111605       0.20282677       0.22923710       0.95353539       2.67719836      -4.33247692
Pb       5.78421843       5.81968867      24.18261272       0.04603911      -0.10116559       0.00495905      -0.11946663      -1.73783487       0.52667290
Pb      24.85622053       5.84133242      17.78662527       0.01799881       0.31125034       0.28075686       3.32334615       2.43789180      -0.66682710
Pb      25.09883023       5.96105319      24.35924601      -0.24003209      -0.34837402      -0.35388194       0.55072616      -0.17617207       1.88378496
N        2.45758623       9.53169363      21.90569510      -1.62584813       0.40786960      -0.28004518       0.43138383       0.26999134       0.33043019
N        9.05663321       2.26533092      15.76497415       0.11662467       1.09239476       0.03145583      -0.68113477       0.21551952      -0.11816342