768
Lattice="38.16606883306081 0.7708101007676014 0.3666927628512125 -0.3296249581406084 22.360322942442707 0.08526197331993467 -0.1800967783537251 -0.06462717078727989 19.468533293292147" Properties=species:S:1:pos:R:3:forces:R:3:momenta:R:3 pbc="T T T"
I       17.52417665       6.27178120       4.99301109       0.06931064       0.02509538      -0.15674025      -1.05071274       2.10061004      -0.47771090
I       18.23220325      10.27123441       2.81827744       0.03323795      -0.15358666      -0.18018804      -0.36978262       0.34346087      -1.20496103
I        8.74371452      12.23961957       5.09688984      -0.03351950      -0.10943392      -0.01856006      -1.97746164      -1.80784054       0.16656547
I        8.11590957       4.59132473       2.40840174       0.13233735       0.10087750       0.23455638       0.63214402      -0.02882168       1.36791125
I       16.06813432       2.74024565       2.66619343      -0.05535323       0.23706003      -0.17245840       1.08670779       2.26187281      -0.05337722
I        1.00306697      13.62985174       4.74275507      -0.09084483      -0.05725326       0.04156113       0.68529725      -0.90233364       0.34371355
I       10.22926377       8.41314042       2.79327094       0.14818525       0.04243094       0.12735795       0.79175125       1.31955236      -0.99466119
I        6.30799900       8.15706350       5.11639509       0.15640998       0.18172553      -0.18037311       1.86492289      -0.07326602       0.64082502
I        2.43146324       5.95514453       2.26900880      -0.15625054       0.01545419      -0.04050375       0.05843580       2.42585895      -0.15213562
I       14.48666437      10.54423914       5.26338231       0.02259043      -0.05931892      -0.04144045      -0.56866167      -0.25749529       0.74452043
I        4.79366205      11.87524885       2.56492274      -0.18644599      -0.11658830      -0.12669288       1.38174598       3.36669851       0.86747780
I       11.92939415       4.84616793       4.91181912       0.06692418       0.03702921       0.05307843      -1.15967247       1.02507856       0.03443268
H        5.50648282       5.01374033       4.20725887      -0.30580532       0.55752639       0.02395684       0.16066183       0.03762286      -0.19944144
H       12.07666622      12.02441266       3.43830357       0.32439634       0.66537488      -0.91130493       0.06096439      -0.17857024       0.05899100
H        3.21607449       9.13966524       3.97552967       0.32979218       0.05407024       0.11691024       0.05322449      -0.02435266       0.08559387
H       13.69467420       6.40282931       3.83368607       0.01960073       0.20182640       0.01643332      -0.06790230       0.08426346       0.13421453
H        3.92531927       3.87457958       4.46499599       0.33783309       0.72067489       0.14919103      -0.10879825       0.08408099       0.06111165
H       11.15679365      11.67259793       1.61156086       0.34462506      -0.54431669      -0.09487840      -0.01994425      -0.02668105       0.04737319
H        1.51118029       9.92159600       3.55069499      -0.01878318      -0.53738817       0.80483344      -0.01149569      -0.11993244      -0.10835449
H       13.09183162       7.63019963       2.28849950       0.65907116      -0.16868447       0.30100088       0.03101730      -0.16846790       0.07272497
H        4.93935141       4.53893482       6.02889479      -0.03154829       0.39908623       0.18423561       0.06904131      -0.04494409      -0.00896056
H       13.02392846      12.62329893       1.65079142       0.16920747       0.12574060       0.22098565      -0.08060441       0.16525199      -0.01314697
H        2.28376975       9.99689690       5.37885265      -0.04316652       0.33590379       0.26277954      -0.07044301       0.07297418      -0.04700401
H       14.44922223       6.25400565       2.05068359       0.08628742       0.04476699       0.20114480      -0.07330372       0.01862812       0.08437118
H        5.63415825       2.30967629       5.52503236      -0.36840594      -0.09024256       0.54402586      -0.01537104      -0.00655473      -0.09694739
H       11.17454974      14.23793906       1.45578121      -0.06791849      -0.27842353       0.14882499       0.01614830      -0.03054356       0.32631159
H        1.97636025       7.56173438       5.67586890      -0.06190040      -0.17738616       0.53297027       0.07608627      -0.12088270      -0.00177459
H       15.07554392       8.64269373       3.71804609      -0.30659709       0.88094365       0.54177778       0.08480677       0.11848648       0.20613589
H        6.77618682       3.22834683       4.82365764       0.51293568       0.07745148      -0.10918845       0.13727824      -0.04395438       0.15815457
H       11.50421662      14.37034446       3.13342248      -0.21230101      -0.32325689      -0.35092192      -0.04762917       0.08189120      -0.00337790
H        1.39905488       7.43925507       4.04363451      -0.03506385      -0.24477424      -0.42699903       0.17919955      -0.02725780       0.01021547
H       15.57354724       8.41808477       2.00901278      -0.26292193       0.90038907      -0.02726921       0.00675748      -0.06177294       0.23534126
H        5.62358593       2.45315502       3.91797440      -0.16476337       0.14645782      -0.37842718      -0.02146006       0.27183609       0.15653333
H       10.12449435      13.46514614       2.60350138      -0.14131835       0.13565200      -0.02300503      -0.04635022      -0.12274229      -0.04191955
H        0.33321198       8.16369614       5.19593251       1.11298778      -0.09395168       0.10003195      -0.13743780      -0.19586667       0.03824267
H       16.17210538       7.27677186       3.33009090       0.59922031       0.29404646       0.22769948      -0.11035716       0.03750893      -0.15696756
C        4.96946560       4.24692965       4.90141496      -0.80180614      -1.18386598      -0.71728267      -0.11783820       0.40521674       0.40581070
C       11.94602295      12.40761064       2.28022057      -1.28590619      -0.03352968       0.35650880      -0.02685462      -0.10941846      -0.03967131
C        2.15302436       9.39205390       4.42277682      -0.30910857      -0.07052568      -0.85657716       0.35674192       0.12482394       0.19160021
C       14.06558368       7.00384080       2.80958349      -1.27504398      -0.49970179      -0.56317890       0.56624224       0.09995029       0.28575759
Pb      38.07423670       4.85374105       2.49654770       0.14962406       0.03298255       0.04052597      -1.14286186      -1.45241091       0.02115754
Pb      17.15247958      12.21681691       5.08018711      -0.02582943      -0.19070871       0.02725421       3.13501930      -2.28256448       0.18056543
Pb       7.48061313      10.35102602       2.70616821       0.03457983      -0.17633629      -0.26262731       1.72997585       0.23190735      -1.59775068
Pb       9.20934218       6.51631111       5.19605266      -0.13290048      -0.27910179      -0.28201014       1.10465827      -2.14958568      -2.04828347
N        5.77830364       3.02018040       4.78187478       0.96150609      -0.56334283       0.56821498      -0.04139040      -0.46017231       0.42341161
N       11.13023416      13.68880914       2.36931142       0.73793871       0.15178723       0.88547428      -0.21070346       0.37757454       0.51209743
N        1.40492682       8.07837386       4.87751979      -0.87699899       0.90660890      -0.54130164       0.60093314       0.88670617       0.11397117
N       15.28396456       7.93508718       3.00466329       0.69983466      -1.62218756      -0.81749870       0.08036754      -0.82378598      -0.17563816
I       17.51127279       6.28518127       9.80608394       0.05002742       0.14489580      -0.00805448      -1.17576093       1.73283908      -0.43991224
I       18.44496828      10.49010024       7.51187051      -0.01087573      -0.29270988       0.06357823       1.64862974      -0.79525432      -0.17682199
I        8.66812908      12.07544644       9.89567135      -0.16688818      -0.17877388       0.02615009      -0.45900093       1.21802517       0.01516132
I        7.98681313       4.66706776       7.81605430       0.06437389      -0.09328481      -0.42527643       1.02786769       0.30476459       1.00773680
I       16.23969908       2.72808608       7.63533380      -0.15013478       0.30110804      -0.09750565      -3.02675701       1.40938963      -0.44333514
I        0.92731604      13.35760424       9.57998927      -0.29982956       0.22685677       0.13080308      -1.14652022      -0.88221800      -1.40334713
I       10.33757725       8.38475834       7.42043798       0.13263929       0.08627579      -0.04338465       4.17547953      -1.18470736       1.12039233
I        6.41587752       8.37512765       9.97103748       0.25961380      -0.08220890      -0.02128777       0.44528733       1.19402984      -0.75138236
I        2.64015403       5.92056376       7.30867113      -0.01831771       0.01561251      -0.07259601       0.49786328      -0.91355533      -0.16334440
I       14.45194925      10.07870436      10.17702978       0.01757421       0.24614128      -0.11608647       1.52820008       1.81847761      -0.74653557
I        4.70465892      11.64267307       7.25207736      -0.00446387       0.05218606      -0.13321934       2.18170707       0.14543028       2.38264911
I       12.06300359       4.66490513       9.58304342       0.05702658       0.21875375       0.10180331       0.49403217      -2.71742592       1.12338710
H        3.67530224       3.90348235      10.25224806      -0.35292411      -0.17510057      -0.21109493       0.13903743      -0.12944213       0.04552734
H       12.05071699      12.00376228       8.52599449      -0.34941336      -0.27219741       0.24934163      -0.05197092       0.11986563       0.17984294
H        2.64324170      10.24858669       9.21048695       0.13763963      -0.34728931       0.24003893       0.08810720       0.04775574      -0.14344145
H       14.63001148       6.30350727       6.41006880      -0.04545906       0.68899868       1.06571307       0.12253901      -0.03179025       0.08444897
H        5.18864764       4.70741181      10.85443656       0.16516355      -0.20995998      -0.20243629      -0.16155354      -0.11269611       0.08399240
H       11.76241901      11.54080949       6.73070867       0.21608233       0.05170060       0.06863978      -0.09819488      -0.08788463       0.20317733
H        1.61475630      10.00900118      10.95353583      -0.26505868      -0.00979695       0.34956368      -0.13676008       0.02386207       0.03823123
H       14.62260892       6.12894454       8.26577260      -0.31566840       0.14490719      -0.62471205       0.08426239      -0.16832736       0.11583945
H        4.70332936       4.88830439       9.04027284      -0.20461311      -0.84982932       0.98241827      -0.14310268       0.01653502      -0.02312602
H       13.04320357      12.80113281       7.26402428       0.76865412       0.29412374      -0.20931632      -0.03919483      -0.09931856       0.13218447
H        3.39368251       9.25622653      10.74032476       0.12208240      -0.39224235      -0.24104675       0.10361810       0.03769345       0.05511271
H       13.41637669       7.24469137       7.41193583       0.32892131      -0.44768722       0.07042607       0.09464578       0.03358186       0.05127519
H        6.59817110       3.15060613       9.36595954      -0.77368196      -0.08768796      -0.00762323       0.04071346      -0.11481201      -0.05102215
H       10.96950896      14.07560364       8.16509493      -0.18866353       0.21045511      -0.21308798      -0.08035584      -0.02306296      -0.08445421
H        1.30965892       7.49813397      10.18999537       0.39210593      -0.24151862       0.76973099       0.02262691      -0.16963733       0.20325892
H       15.06950434       8.61245187       8.41443411       0.13846149      -0.20618914      -0.08601899       0.02121131       0.10435193      -0.14491138
H        5.17094743       2.41412585       8.73064004       0.08511903       0.26791395       0.76343562       0.04073010       0.33707094       0.09393451
H       10.11489707      13.11690133       6.92568793      -1.15409034      -0.00842956       0.15934851      -0.13218199      -0.02571566       0.01036874
H        1.97238367       7.89820813       8.56094668      -0.06760309       0.30329517       0.43712504       0.06147204       0.10427644      -0.15842964
H       15.32160464       8.56348894       6.74060651       0.13553443       0.66735565      -0.30507807       0.04648446      -0.19215912      -0.00112742
H        5.59069656       2.26465030      10.43845047      -0.12405077       0.01007836      -0.09072901      -0.08620797       0.02565980      -0.09657968
H       11.42330026      14.15088849       6.46244732      -0.34021807      -0.10070597       0.50814893       0.23788779      -0.02329422       0.16409026
H        0.49172285       8.56632356       9.14061080      -0.14005749       0.15688629      -0.18523868       0.15426825      -0.03474225       0.29141572
H       16.37338930       7.61367179       7.74875572      -1.66913905       0.89712245       0.08619315       0.10474938       0.15656881       0.08168040
C        4.72587426       4.18102670       9.95921483       0.64349906       0.86121104      -0.49270337      -0.27394617      -0.38368754       0.14281807
C       12.05617235      12.37657224       7.44954002      -1.05841619       0.40399711      -0.15163794      -0.23997641      -0.16087915      -0.28052101
C        2.33694653       9.50249732      10.13936025       0.25825863       1.26527942      -0.40946474       0.11247338      -0.24890452      -0.13279414
C       14.44885981       6.82321116       7.40648602      -0.58559515      -0.49683286       0.03006686      -0.24017630      -0.33579842      -0.09213350
Pb      -0.08925182       4.33496389       7.03682413       0.06289773      -0.35749840       0.35206684      -1.30224913      -0.14128623      -0.11014350
Pb      17.01506792      12.04536934      10.03154597       0.05964583      -0.18194644       0.03044691      -0.57617482       0.05767526       1.16114872
Pb       7.46898961      10.15494068       7.39668861      -0.14016536       0.09042007       0.28972038      -0.02266876      -0.75305705       0.21784499
Pb       9.42524417       6.36238396       9.93513113      -0.36033512       0.12706371       0.14620826       2.95585538      -0.54807930      -2.38698295
N        5.56131914       2.93950146       9.61432028       0.74320696       0.06753564      -0.64485520      -0.57289604      -0.14524744       0.00627448
N       11.04035374      13.51567322       7.25465367       1.91282353      -0.57813895      -0.36437042       0.01818104      -0.04286062       0.38460563
N        1.48818625       8.32822172       9.47612576      -0.51064261      -0.73912808      -0.67862984      -0.11359238       0.77668466      -0.54252162
N       15.35667554       7.99273722       7.60064146       2.08701937      -1.14807423      -0.31741926      -0.12006355      -0.10106425      -0.35864751
I       17.43412826       6.23946761      14.72727774       0.06931064       0.02509538      -0.15674025      -1.05071274       2.10061004      -0.47771090
I       18.14215486      10.23892082      12.55254409       0.03323795      -0.15358666      -0.18018804      -0.36978262       0.34346087      -1.20496103
I        8.65366613      12.20730598      14.83115649      -0.03351950      -0.10943392      -0.01856006      -1.97746164      -1.80784054       0.16656547
I        8.02586118       4.55901114      12.14266839       0.13233735       0.10087750       0.23455638       0.63214402      -0.02882168       1.36791125
I       15.97808593       2.70793206      12.40046008      -0.05535323       0.23706003      -0.17245840       1.08670779       2.26187281      -0.05337722
I        0.91301858      13.59753815      14.47702172      -0.09084483      -0.05725326       0.04156113       0.68529725      -0.90233364       0.34371355
I       10.13921538       8.38082683      12.52753759       0.14818525       0.04243094       0.12735795       0.79175125       1.31955236      -0.99466119
I        6.21795061       8.12474991      14.85066174       0.15640998       0.18172553      -0.18037311       1.86492289      -0.07326602       0.64082502
I        2.34141485       5.92283094      12.00327545      -0.15625054       0.01545419      -0.04050375       0.05843580       2.42585895      -0.15213562
I       14.39661598      10.51192555      14.99764896       0.02259043      -0.05931892      -0.04144045      -0.56866167      -0.25749529       0.74452043
I        4.70361366      11.84293526      12.29918939      -0.18644599      -0.11658830      -0.12669288       1.38174598       3.36669851       0.86747780
I       11.83934576       4.81385434      14.64608577       0.06692418       0.03702921       0.05307843      -1.15967247       1.02507856       0.03443268
H        5.41643443       4.98142674      13.94152552      -0.30580532       0.55752639       0.02395684       0.16066183       0.03762286      -0.19944144
H       11.98661783      11.99209907      13.17257022       0.32439634       0.66537488      -0.91130493       0.06096439      -0.17857024       0.05899100
H        3.12602610       9.10735165      13.70979632       0.32979218       0.05407024       0.11691024       0.05322449      -0.02435266       0.08559387
H       13.60462581       6.37051572      13.56795272       0.01960073       0.20182640       0.01643332      -0.06790230       0.08426346       0.13421453
H        3.83527088       3.84226599      14.19926264       0.33783309       0.72067489       0.14919103      -0.10879825       0.08408099       0.06111165
H       11.06674526      11.64028434      11.34582751       0.34462506      -0.54431669      -0.09487840      -0.01994425      -0.02668105       0.04737319
H        1.42113190       9.88928241      13.28496164      -0.01878318      -0.53738817       0.80483344      -0.01149569      -0.11993244      -0.10835449
H       13.00178323       7.59788604      12.02276615       0.65907116      -0.16868447       0.30100088       0.03101730      -0.16846790       0.07272497
H        4.84930302       4.50662123      15.76316144      -0.03154829       0.39908623       0.18423561       0.06904131      -0.04494409      -0.00896056
H       12.93388007      12.59098534      11.38505807       0.16920747       0.12574060       0.22098565      -0.08060441       0.16525199      -0.01314697
H        2.19372136       9.96458331      15.11311930      -0.04316652       0.33590379       0.26277954      -0.07044301       0.07297418      -0.04700401
H       14.35917384       6.22169206      11.78495024       0.08628742       0.04476699       0.20114480      -0.07330372       0.01862812       0.08437118
H        5.54410986       2.27736270      15.25929901      -0.36840594      -0.09024256       0.54402586      -0.01537104      -0.00655473      -0.09694739
H       11.08450135      14.20562547      11.19004786      -0.06791849      -0.27842353       0.14882499       0.01614830      -0.03054356       0.32631159
H        1.88631186       7.52942079      15.41013555      -0.06190040      -0.17738616       0.53297027       0.07608627      -0.12088270      -0.00177459
H       14.98549553       8.61038014      13.45231274      -0.30659709       0.88094365       0.54177778       0.08480677       0.11848648       0.20613589
H        6.68613843       3.19603324      14.55792429       0.51293568       0.07745148      -0.10918845       0.13727824      -0.04395438       0.15815457
H       11.41416823      14.33803087      12.86768913      -0.21230101      -0.32325689      -0.35092192      -0.04762917       0.08189120      -0.00337790
H        1.30900649       7.40694148      13.77790116      -0.03506385      -0.24477424      -0.42699903       0.17919955      -0.02725780       0.01021547
H       15.48349885       8.38577118      11.74327943      -0.26292193       0.90038907      -0.02726921       0.00675748      -0.06177294       0.23534126
H        5.53353754       2.42084143      13.65224105      -0.16476337       0.14645782      -0.37842718      -0.02146006       0.27183609       0.15653333
H       10.03444596      13.43283255      12.33776803      -0.14131835       0.13565200      -0.02300503      -0.04635022      -0.12274229      -0.04191955
H        0.24316359       8.13138255      14.93019916       1.11298778      -0.09395168       0.10003195      -0.13743780      -0.19586667       0.03824267
H       16.08205699       7.24445827      13.06435755       0.59922031       0.29404646       0.22769948      -0.11035716       0.03750893      -0.15696756
C        4.87941721       4.21461606      14.63568161      -0.80180614      -1.18386598      -0.71728267      -0.11783820       0.40521674       0.40581070
C       11.85597456      12.37529705      12.01448722      -1.28590619      -0.03352968       0.35650880      -0.02685462      -0.10941846      -0.03967131
C        2.06297597       9.35974031      14.15704347      -0.30910857      -0.07052568      -0.85657716       0.35674192       0.12482394       0.19160021
C       13.97553529       6.97152721      12.54385014      -1.27504398      -0.49970179      -0.56317890       0.56624224       0.09995029       0.28575759
Pb      37.98418831       4.82142747      12.23081435       0.14962406       0.03298255       0.04052597      -1.14286186      -1.45241091       0.02115754
Pb      17.06243119      12.18450332      14.81445376      -0.02582943      -0.19070871       0.02725421       3.13501930      -2.28256448       0.18056543
Pb       7.39056474      10.31871243      12.44043486       0.03457983      -0.17633629      -0.26262731       1.72997585       0.23190735      -1.59775068
Pb       9.11929379       6.48399752      14.93031931      -0.13290048      -0.27910179      -0.28201014       1.10465827      -2.14958568      -2.04828347
N        5.68825525       2.98786681      14.51614143       0.96150609      -0.56334283       0.56821498      -0.04139040      -0.46017231       0.42341161
N       11.04018577      13.65649555      12.10357807       0.73793871       0.15178723       0.88547428      -0.21070346       0.37757454       0.51209743
N        1.31487843       8.04606027      14.61178644      -0.87699899       0.90660890      -0.54130164       0.60093314       0.88670617       0.11397117
N       15.19391617       7.90277359      12.73892994       0.69983466      -1.62218756      -0.81749870       0.08036754      -0.82378598      -0.17563816
I       17.42122440       6.25286768      19.54035059       0.05002742       0.14489580      -0.00805448      -1.17576093       1.73283908      -0.43991224
I       18.35491989      10.45778665      17.24613716      -0.01087573      -0.29270988       0.06357823       1.64862974      -0.79525432      -0.17682199
I        8.75817747      12.10776003       0.16140470      -0.16688818      -0.17877388       0.02615009      -0.45900093       1.21802517       0.01516132
I        7.89676474       4.63475417      17.55032095       0.06437389      -0.09328481      -0.42527643       1.02786769       0.30476459       1.00773680
I       16.14965069       2.69577249      17.36960045      -0.15013478       0.30110804      -0.09750565      -3.02675701       1.40938963      -0.44333514
I        0.83726765      13.32529065      19.31425592      -0.29982956       0.22685677       0.13080308      -1.14652022      -0.88221800      -1.40334713
I       10.24752886       8.35244475      17.15470463       0.13263929       0.08627579      -0.04338465       4.17547953      -1.18470736       1.12039233
I        6.50592591       8.40744124       0.23677083       0.25961380      -0.08220890      -0.02128777       0.44528733       1.19402984      -0.75138236
I        2.55010564       5.88825017      17.04293778      -0.01831771       0.01561251      -0.07259601       0.49786328      -0.91355533      -0.16334440
I       14.54199764      10.11101795       0.44276313       0.01757421       0.24614128      -0.11608647       1.52820008       1.81847761      -0.74653557
I        4.61461053      11.61035948      16.98634401      -0.00446387       0.05218606      -0.13321934       2.18170707       0.14543028       2.38264911
I       11.97295520       4.63259154      19.31731007       0.05702658       0.21875375       0.10180331       0.49403217      -2.71742592       1.12338710
H        3.76535063       3.93579594       0.51798141      -0.35292411      -0.17510057      -0.21109493       0.13903743      -0.12944213       0.04552734
H       11.96066860      11.97144869      18.26026114      -0.34941336      -0.27219741       0.24934163      -0.05197092       0.11986563       0.17984294
H        2.55319331      10.21627310      18.94475360       0.13763963      -0.34728931       0.24003893       0.08810720       0.04775574      -0.14344145
H       14.53996309       6.27119368      16.14433545      -0.04545906       0.68899868       1.06571307       0.12253901      -0.03179025       0.08444897
H        5.27869603       4.73972540       1.12016991       0.16516355      -0.20995998      -0.20243629      -0.16155354      -0.11269611       0.08399240
H       11.67237062      11.50849590      16.46497532       0.21608233       0.05170060       0.06863978      -0.09819488      -0.08788463       0.20317733
H        1.70480469      10.04131477       1.21926918      -0.26505868      -0.00979695       0.34956368      -0.13676008       0.02386207       0.03823123
H       14.53256053       6.09663095      18.00003925      -0.31566840       0.14490719      -0.62471205       0.08426239      -0.16832736       0.11583945
H        4.61328097       4.85599080      18.77453949      -0.20461311      -0.84982932       0.98241827      -0.14310268       0.01653502      -0.02312602
H       12.95315518      12.76881922      16.99829093       0.76865412       0.29412374      -0.20931632      -0.03919483      -0.09931856       0.13218447
H        3.48373090       9.28854012       1.00605811       0.12208240      -0.39224235      -0.24104675       0.10361810       0.03769345       0.05511271
H       13.32632830       7.21237778      17.14620248       0.32892131      -0.44768722       0.07042607       0.09464578       0.03358186       0.05127519
H        6.50812271       3.11829254      19.10022619      -0.77368196      -0.08768796      -0.00762323       0.04071346      -0.11481201      -0.05102215
H       10.87946057      14.04329005      17.89936158      -0.18866353       0.21045511      -0.21308798      -0.08035584      -0.02306296      -0.08445421
H        1.39970731       7.53044756       0.45572872       0.39210593      -0.24151862       0.76973099       0.02262691      -0.16963733       0.20325892
H       14.97945595       8.58013828      18.14870076       0.13846149      -0.20618914      -0.08601899       0.02121131       0.10435193      -0.14491138
H        5.08089904       2.38181226      18.46490669       0.08511903       0.26791395       0.76343562       0.04073010       0.33707094       0.09393451
H       10.02484868      13.08458774      16.65995458      -1.15409034      -0.00842956       0.15934851      -0.13218199      -0.02571566       0.01036874
H        1.88233528       7.86589454      18.29521333      -0.06760309       0.30329517       0.43712504       0.06147204       0.10427644      -0.15842964
H       15.23155625       8.53117535      16.47487316       0.13553443       0.66735565      -0.30507807       0.04648446      -0.19215912      -0.00112742
H        5.68074495       2.29696389       0.70418382      -0.12405077       0.01007836      -0.09072901      -0.08620797       0.02565980      -0.09657968
H       11.33325187      14.11857490      16.19671397      -0.34021807      -0.10070597       0.50814893       0.23788779      -0.02329422       0.16409026
H        0.40167446       8.53400997      18.87487745      -0.14005749       0.15688629      -0.18523868       0.15426825      -0.03474225       0.29141572
H       16.28334091       7.58135820      17.48302237      -1.66913905       0.89712245       0.08619315       0.10474938       0.15656881       0.08168040
C        4.81592265       4.21334029       0.22494818       0.64349906       0.86121104      -0.49270337      -0.27394617      -0.38368754       0.14281807
C       11.96612396      12.34425865      17.18380667      -1.05841619       0.40399711      -0.15163794      -0.23997641      -0.16087915      -0.28052101
C        2.42699492       9.53481091       0.40509360       0.25825863       1.26527942      -0.40946474       0.11247338      -0.24890452      -0.13279414
C       14.35881142       6.79089757      17.14075267      -0.58559515      -0.49683286       0.03006686      -0.24017630      -0.33579842      -0.09213350
Pb      -0.17930021       4.30265030      16.77109078       0.06289773      -0.35749840       0.35206684      -1.30224913      -0.14128623      -0.11014350
Pb      17.10511631      12.07768293       0.29727932       0.05964583      -0.18194644       0.03044691      -0.57617482       0.05767526       1.16114872
Pb       7.37894122      10.12262709      17.13095526      -0.14016536       0.09042007       0.28972038      -0.02266876      -0.75305705       0.21784499
Pb       9.51529256       6.39469755       0.20086448      -0.36033512       0.12706371       0.14620826       2.95585538      -0.54807930      -2.38698295
N        5.47127075       2.90718787      19.34858693       0.74320696       0.06753564      -0.64485520      -0.57289604      -0.14524744       0.00627448
N       10.95030535      13.48335963      16.98892032       1.91282353      -0.57813895      -0.36437042       0.01818104      -0.04286062       0.38460563