768
Lattice="25.625769195560288 0.1442251890105203 -0.06288156074118129 -0.08544278206367628 25.555723663810763 -0.05823012908242495 0.07213310111533067 -0.1299461261962401 25.66616038795785" Properties=species:S:1:pos:R:3:forces:R:3:momenta:R:3 energy=-3321.537122660269 stress="0.0 0.0 0.0 0.0 0.0 0.0 0.0 0.0 0.0" pbc="T T T"
I        7.21062815       0.63631059       2.77252286      -0.08322815       0.06534713      -0.10316713       1.77777567      -0.51198590      -1.98761675
I        6.16051624      12.24096101       8.84897710       0.02401918       0.06837532      -0.10529767      -1.15209608      -1.37272710       2.26985199
I        5.60919699       9.71861095       5.48695114       0.19787119       0.06492296      -0.15758468      -1.17399608      -2.68279339      -2.13592459
I        6.92806470       3.33445169       6.25392702      -0.07330271       0.04288952       0.03548019       0.58524944       0.55758707       0.82892619
I        0.46707273      12.07441755       8.89004884       0.03621709       0.00662724       0.15868504      -0.86557620       0.97872630       0.71151961
I       12.39550492       0.91169975       2.86305537       0.22534841       0.07771082      -0.37235667      -0.59276615      -0.38643045      -1.30111104
I       12.63418896       3.54985768       5.99752963      -0.00834918       0.13187201      -0.03242522       1.02463659       2.27674435       0.20562885
I        0.44131548       9.76846927       4.75041182       0.10044605       0.14273119       0.08998107       0.64322454      -0.47252498      -3.81546696
I        9.85054357      13.04766171      11.85109323      -0.17085469       0.02444047      -0.02935455      -1.70872783      -2.58056422       0.15830335
I        3.28148217       5.84553905       6.12211673       0.03544840       0.05014131       0.04968113       3.12321157       1.84222707      -0.48398733
I        3.43922480       0.53746155       5.36596337      -0.10858985      -0.07447960      -0.15371080      -1.81657423      -0.58438027       0.38820672
I        9.92572974      12.57859572       6.05572328      -0.42624466       0.00469604       0.02651684       1.14276216      -1.10117688      -2.50136906
H        4.36062373       2.15009264       2.01797809      -0.46676545       0.21706266       0.00543066       0.07009181       0.06554259      -0.07518121
H        8.90058568       3.66761911       1.54299154      -0.97898870       1.28108902      -0.26243166      -0.15895103      -0.02830800       0.10027329
H        8.96246138       9.48490678       2.42238778       0.84860878       0.30333993       0.11530242      -0.10798986      -0.03940976       0.04076036
H        2.56311877       2.43277059       7.84244080      -0.74049739       0.00078306      -0.22348190      -0.27800988       0.18781075      -0.05402150
H        2.74182487       8.08498488       8.21405397      -0.76268483      -0.66547011       0.30976437       0.13788535      -0.12642304       0.27654853
H       10.72473862       4.45120955       2.38868905      -0.05739111       0.35668107       0.32314650       0.04656547       0.13320292      -0.07357335
H        8.76986901       3.11735079       8.68747548      -0.93573406      -0.29161646      -0.44570489       0.08026389      -0.17588844      -0.00459786
H        4.28439498       2.68167935       7.63663809       0.73193732      -0.22235905       0.12901582       0.05165366      -0.13320290      -0.18255006
H        3.22159945       3.33603203       1.12175437      -0.02999155      -0.66968258       1.06069467       0.20680406       0.13800627       0.02887548
H       10.68895045       2.41627187       2.00113524      -0.05119193       1.05574775       1.32729650       0.03526679       0.26451586       0.15246023
H        9.46881347      10.19876200       4.03105472       0.00701347       0.27404766       1.37879676       0.02637985       0.02382630       0.18010347
H        3.61315344       1.78351327       9.17562599       0.27801068       0.04510549      -1.01071980      -0.02198625       0.24486417      -0.13584835
H        3.74648458       3.03329743       4.19183568      -0.21992762      -0.09097470      -0.30802993       0.07673152       0.16286078       0.05171847
H       10.44954444       8.17253139      10.51010473      -0.08175668       0.28760926       0.05234666       0.16285606      -0.30530558       0.31214610
H       10.72697060      11.97158994       2.62724047       0.73466169       0.31234751       0.30343863       0.06394170       0.03372482       0.19399441
H        2.57135331      10.76628838       3.42523296       1.03469124      -0.53693320      -1.08059770       0.24252833      -0.07187703       0.23629147
H        2.72951135       4.17324415       3.56494810      -0.74181707       0.62022495      -0.41214974      -0.00909708       0.07395067      -0.11947011
H        9.41175382       9.35882246      11.10943500      -0.09636960      -0.05858799       0.13975736       0.04353028      -0.01440138      -0.21532800
H        9.04424515      12.02296649       2.63693011       0.78779269      -0.42663901      -0.52124279       0.09952452       0.23342164      -0.05779496
H        3.29059392      11.17456322       1.86888028       0.40420454      -0.22605362       0.36802033      -0.04726808       0.09724544      -0.09330956
H        4.39940659       4.23063236       3.24577147       0.12055116       0.55230087      -0.15443714      -0.05607647      -0.14726001      -0.12893554
H        8.94147158       4.81897070       4.32980769      -0.40609586      -0.23953234       0.12679741       0.09120076       0.22796229       0.03054994
H        9.90549000      11.44549218       1.29887096       0.03667107      -0.19105514      -0.08991135       0.07894270      -0.06716120      -0.07204241
H        4.23262895      10.48061052       3.19189371       0.14381641       0.08490097      -0.31915246      -0.02124544       0.15431805       0.00286042
C        3.51609242       8.84440835       8.16891353      -0.84464724       1.11654060       0.05438512       0.02592664      -0.86299100      -0.26261266
C        9.98786759       3.58315442       2.39192861       0.51306311      -2.81536749      -0.96176271      -0.48190198      -0.20029577       0.97761118
C        9.74792464       3.51025378       8.91491915       1.29336719      -0.06670674       0.18675796      -0.54340227       0.02730624       0.15714454
C        3.48588413       2.56834556       8.38229989      -0.09739803      -0.05939851       1.89828521      -0.28435916       0.12229108      -0.41129931
Pb       6.40280245       6.71293649       5.76945351      -0.18932901      -0.02604284       0.03565954      -4.49562761       0.58514924      -4.35780640
Pb       6.85795059      13.16729351       5.73120858      -0.38525703      -0.21741037       0.07855167       0.06815838       1.90361764      -0.20033261
Pb       0.12469496      12.80632829      12.01869607       0.02388992      -0.14649219      -0.23734730      -4.65436492      -2.04674405      -1.59287701
Pb       0.26878423      13.05762883       5.42087350      -0.05887177      -0.21710765       0.23570251       0.90352549      -0.47382022      -2.16403033
N        3.55252719       3.62156222       3.31733046       1.34051833      -0.97960962       0.67505421       0.80381044      -0.66530647       0.24386490
N       10.33811239       9.20736693      10.63464548      -0.69795522       0.07055992      -0.46252682      -0.40275524      -1.21413954      -0.40354549
N        9.90213334      11.44835978       2.32895097      -1.55779350      -1.32344065       1.01545919       0.68688581      -0.29858407      -0.39373283
N        3.33322485      10.45324326       2.65470726      -1.91410910       1.08390423       0.86304172       0.23868638      -0.62337204      -0.73800305
I        6.86014483       7.16314884       9.10682715       0.12752340       0.01121020      -0.23331316      -1.07304840      -2.98415342      -1.43984964
I        6.30426972       5.91126809       2.72320762       0.01430854       0.00328553      -0.28200788      -2.31448225      -1.85462844       0.00512855
I        6.35147474       3.38603115      11.25425589      -0.08642928      -0.27446023       0.07879478      -0.03777501      -0.57929473       0.85703455
I        6.82515280       9.51538182      25.66912953       0.10275198       0.05594425       0.02224586      -0.28948366      -0.76835981      -3.13496528
I        0.40747879       5.59904360       2.72711207       0.08332968      -0.02087587      -0.17874828       0.04054719      -0.04310483       0.65981274
I       12.84791549       7.16461645       8.93726463      -0.06419226      -0.02040734      -0.15581986      -1.96220742       2.92620818       0.96393503
I       12.63518684       9.85797377      25.80743769      -0.18162189      -0.25003875      -0.14780405       1.76245040       0.62590491      -1.56110447
I        0.17628353       3.02708196      10.96175980       0.10580840       0.39707188       0.21438599      -0.05569855       0.83537091      -0.17350787
I        9.70285696       6.72966622       5.26011661       0.15521552       0.09986475       0.13485895       1.22190643      -0.32088558       0.66769530
I        3.29058662      12.35712799      25.32716327       0.51460048      -0.06460275      -0.04254700       2.53051171      -0.02178557      -1.89636430
I        3.35664899       6.84551824      11.64801998      -0.23411878       0.07165809      -0.14984999      -1.35211298       1.72080485       2.00184928
I        9.92186686       5.77172608      24.78121650      -0.13798959       0.15339408       0.12203514       1.15219508      -0.93479643       1.32688641
H        4.48501032       8.36949357       8.29129745       0.95723654      -0.39961249      -0.45666273       0.01727262       0.00047592       0.06375233
H        9.60711710       9.49107800       8.61986851      -0.34910458      -0.27434621       0.22420900      -0.17727244       0.09325897       0.05825820
H        9.97848200       3.42185327      10.02034231       0.17714837      -0.34175639       0.35798165      -0.24570535       0.09331292       0.09214640
H        3.22513924       8.37983422       2.91934458      -0.46658993      -0.63936356       0.12042607       0.08771523       0.02431123       0.10307488
H        2.48350216       2.01607456       2.35362438       1.81967466       1.01096518      -0.32962649       0.11706934       0.12285806      -0.04331104
H       10.13207913      11.06018285       9.42055065       0.26875502      -1.52555158       0.22952386      -0.07211780      -0.25027357       0.07015705
H       10.85280402       9.53100119       2.97663603      -1.09086309       0.58920868      -0.00796454       0.10716836       0.18792954      -0.11627532
H        2.05390860       9.00835820       1.54950641      -0.02462304       0.03905875       0.97302369      -0.04040841       0.14683666      -0.03792281
H        3.28247881       9.43797562       7.22549562       0.62980693      -0.26747462      -0.18282164       0.11336369      -0.01860498       0.07827516
H       11.37992321       9.73291295       8.85706118      -0.53268472       0.50633199       0.39848516       0.14931106      -0.19064718       0.08219488
H       10.53606338       2.96097977       8.23421782      -0.41036470       0.35034762       0.45485749      -0.05520547      -0.17190362       0.01034858
H        3.77399401       8.90666184       1.23531453       0.18044661       0.00039105       0.25987351       0.21182834       0.06648028      -0.00489290
H        2.50620390      10.41920393       9.19179771      -0.85523595       0.64962126       0.15543182       0.08620525      -0.07647198      -0.13965591
H       10.48494894       3.53978663       4.90007510      -0.88428626      -0.22075563       0.10572279       0.09991665      -0.32997636      -0.00815733
H        8.92219203       5.51105070       9.03458119      -0.41898395       0.37905967       0.20529348       0.04936394      -0.32239906       0.14777228
H        3.35177366       4.65824643       8.47252405      -0.05109362      -0.97645826       1.29313977      -0.20746812      -0.11374888      -0.11002519
H        4.13303346      10.60212564       9.22388131       0.83823691       0.77014318      -0.03116803      -0.08088077      -0.05236188      -0.08191896
H        8.72534907       2.88905756       4.08427139       0.42008934       0.04891945       0.11256283      -0.12954052      -0.03776801      -0.07345655
H        9.80010856       5.28046350       7.55872559      -0.26734946      -0.07250801       1.22802651       0.13854001      -0.19218313       0.26550863
H        4.13519867       4.00163503       9.89452747      -0.18531947      -0.27211750      -0.48229042      -0.18574227       0.13721273       0.10804426
H        3.49894220       9.51257188      10.32631577      -0.24989504      -0.51557595      -0.33924043      -0.13110643       0.09659320      -0.02119872
H       11.09476352       9.50016818      11.31492290       0.05958516       0.21574223      -0.21914778      -0.07523854      -0.02192828      -0.02514535
H       10.61616334       5.47117802       9.05478705      -0.30347937       0.02471797       0.11031116       0.12548800       0.33065628       0.20708461
H        2.44342021       3.82954716       9.72796183       0.38040511       0.01557311      -0.37530252      -0.05088178       0.28242652       0.03726756
C        3.41704504       2.73090201       2.10158492      -1.83770234      -0.72189121      -0.53448370      -0.47302151       0.01404917       0.17970865
C       10.36227186       9.92643131       9.31671571       0.95474820       0.85060363      -0.50476304       0.14592003       0.14364604      -0.65771201
C        9.79293538      10.04540833       2.99038726       0.23684056       0.19038201      -2.21904870       0.41346587       0.23258171       0.46244265
C        3.03166900       9.07674837       2.08290156       0.68244145       0.25112665      -1.02658353       0.90888419       0.39093520       0.78676669
Pb       6.55988719      12.83632838      11.88625871      -0.03539209      -0.04687644       0.18614918       0.46899900       2.51752776      -4.04067508
Pb       6.40757659       6.38602052      12.09294843       0.13215019      -0.03738432       0.12438609       0.09662987      -0.00061692       1.27401841
Pb      -0.01998699       6.48357622       5.48037543       0.36337990       0.24030112       0.11678374      -0.74942811      -0.19159781       1.82475024
Pb       0.00238688       6.45583033      11.89329102       0.17080582      -0.27764710       0.19386554      -1.30860773      -2.01344565       1.40763848
N        3.39101617       9.88924200       9.28726933       0.13310144      -0.65291568       0.65258910       0.17452503      -0.75628077      -1.01183011
N        9.46316611       3.66197381       4.04344064       1.40807280       0.37473303      -0.84347123      -0.11775354      -0.93640686       0.27895015
N        9.74647708       5.02081562       8.65092460       0.95242853      -0.03509239      -2.11053836       0.55484592      -0.42134294       0.50797790
N        3.36055710       3.84096731       9.18684004      -0.32255068       1.48438460      -1.12526276      -0.46570019       0.49943880       0.18341901
I        7.08840140       0.43897763      15.79465934       0.05099510       0.06751967      -0.41357292       0.20057516      -0.04610088       1.58603257
I        6.22723429      11.83892535      21.83747804       0.07457381       0.06739248       0.03822334      -1.96422408       0.97382179       0.86549760
I        6.05598366       9.47679056      17.87461542      -0.34927485      -0.22576462      -0.29105800       0.16708177      -2.03406697       1.97136791
I        6.77976705       3.03963631      19.15571993       0.13475019       0.17878953       0.10374581      -0.72600325       1.12999905      -0.45310878
I        0.62395709      12.22632396      21.76171971       0.11982973      -0.07248584      -0.05280443       1.06256139       2.52444433       0.61382624
I       12.99971450       0.57394435      15.58746833      -0.23999346       0.15275472       0.08661389      -0.12169588       3.06701621       0.36898834
I       12.60536812       3.49797488      19.41245668       0.02448230       0.09758924      -0.16038093      -2.57764106      -0.11864729       3.41066295
I        0.52669154       9.70094351      18.52611613      -0.09790054      -0.13658774      -0.15236542       2.72964720       1.36501751       0.58188049
I        9.95622466      13.13826086      24.69325819      -0.04073157      -0.12642721       0.04751132       0.82115264       0.37486623      -0.56352565
I        3.47390668       6.04585513      18.98792943      -0.43841930      -0.28608354       0.18231797       2.67651535      -1.61321183       4.31849692
I        3.40680797       0.31331537      18.20519742       0.16234538      -0.15542217       0.03765510       1.97614103      -0.41129461      -0.31923020
I        9.52869964      12.01973228      18.57580295       0.48265985       0.11949197       0.07169587       2.01107427      -0.07456795      -0.12325513
H        4.38024223       2.13425531      14.43055032       0.39835266       0.16065411      -0.22077768      -0.25100540       0.18241958       0.08209470
H        8.78620321       4.20442383      15.38816890       0.48537234       0.16823035      -0.28604671      -0.08030952      -0.13719032      -0.14197107
H        8.62971343       9.08969085      14.49222198       0.97698662       0.32348468      -0.25533608       0.04214183      -0.00447412       0.12515733
H        2.70602744       2.23038270      20.81587619      -0.61029879       0.11628702      -0.47547209       0.22197819      -0.07741766      -0.02804700
H        2.29684985       7.97340702      21.53493385       0.22250997      -0.29262603      -0.25754846      -0.22400590       0.00365368       0.09003950
H       10.68269756       3.89716630      15.15266133      -1.03075821       0.11866279       0.51468624       0.20733847      -0.20694586      -0.07624064
H        8.84891988       2.66225460      21.95113185      -0.88899894      -0.96661983      -0.27392226      -0.01400292      -0.05615166       0.05302704
H        4.46108670       2.63473461      20.68367170       0.77272494       0.25397727      -0.35167471       0.26572380       0.12801539      -0.03972376
H        3.68840723       3.78875416      13.86115400       0.21983218       0.01186718       0.00567867       0.06597195       0.12297428       0.02713954
H        9.50767378       2.74839744      14.52819508      -0.41946151      -0.46786671       0.34126078      -0.16322131      -0.01925130      -0.05719968
H        8.74076587       9.24674268      16.57401544       0.39821515       0.62847851      -0.74224175       0.20986483       0.06900415       0.03487530
H        3.82832335       1.67938269      22.09574398       0.07451970       0.17997389      -0.16906719      -0.00914968       0.18653441      -0.01689535
H        3.28548599       2.29362369      16.57151603       0.65059516      -0.96698999       0.85572873      -0.11965612       0.27796019      -0.10238415
H        9.93661788       8.24771114      23.48767587       0.22760787       1.43597385      -0.15187641      -0.19408301       0.22175454       0.04961096
H       10.28312895      11.75113922      15.95846447       0.08336848      -0.78892187       0.01192728      -0.18897212       0.19134571       0.01956909
H        1.98200020       9.99270532      16.23843953      -0.99856580       0.33176928       0.37017219      -0.03466591       0.26312789       0.08207593
H        2.41655558       3.65074700      16.23592893       0.01767190       0.06447247      -0.71422915       0.45297592      -0.31236301       0.28959659
H        8.66697026       9.38288769      23.79441587      -0.79424835       0.46665415       1.01347935       0.02014568       0.11663876      -0.01195577
H        8.67531649      11.45811893      15.06502092      -1.31258750       0.85121681       0.38750845      -0.04733237      -0.05721248      -0.03296072
H        2.59912838      10.72636271      14.79306118      -0.05590467       1.43892364      -1.01985330      -0.05685811       0.08198318       0.00458472
H        4.06873757       3.85830031      16.19217446       0.04324336      -0.19018065       0.62412765      -0.13499559      -0.02500383       0.07648677
H        9.73408610       3.46262764      17.47618026      -0.06016660       1.04491797       0.48160360      -0.16588293       0.09259572       0.08077985
H       10.25382925      11.23294956      14.08485179       0.01101990       0.26206397       0.53256976      -0.15878497      -0.15682551      -0.07720453
H        3.59744562      10.40633714      16.17549605      -0.13777222       0.50441176      -0.15245129       0.11446929      -0.13937356       0.28502960
C        3.21541728       8.59430241      21.24250888       0.31489556       1.78906881       0.70767867      -0.19968131      -0.07172991       0.83128108
C        9.63526322       3.47402660      15.36601297       0.84815630       0.73423922      -0.61432751       0.63977387       1.26135423      -0.47960552
C        9.74686745       3.16542507      22.19428577       1.09282979       0.11504669      -0.01926002       0.21053164       0.32066651      -0.17207284
C        3.61869140       2.49472739      21.35472023      -1.01309226       0.37686423       1.93451833       0.67232755      -0.76938394       0.63711540
Pb       6.33023326       6.35438160      18.58590739       0.08949707       0.07881323      -0.45242264       1.18024682       1.97097494      -1.37442446
Pb       6.47783860      12.49561741      18.38689733       0.14230148       0.31111585       0.12361292       3.42208425      -0.43496390      -1.08839052
Pb       0.27082750      12.98143304      24.71579527       0.09703020      -0.24008774       0.08826723      -1.32227339       0.19445428       4.89280923
Pb       0.15893833      13.11762640      18.49789925       0.20939790      -0.46736444      -0.04938400       1.20385556       0.18422261       2.48121926
N        3.31877161       3.14232900      15.97346243       0.05614261       1.70034618      -0.62352250       0.77449031      -0.68028254       0.50466995
N        9.69097790       9.32876324      23.48677248       1.55007059      -2.26114868       0.74634240       0.64964786       0.24592789      -0.52035971
N        9.68414886      11.07109113      15.14927305       0.98611151      -0.51333687      -1.03120661      -0.27051275      -0.22711327       0.40274306
N        2.77083065      10.09047457      15.58099488       1.94796240      -2.62162477       1.43784221       0.76259582       1.06931770       0.32744658
I        7.03645057       7.09114265      21.79155630      -0.01349490      -0.22608436       0.09750071      -1.43040675       1.32407727      -0.45940546
I        5.89449160       5.62556380      15.35660117       0.07250106       0.03435692       0.31021911       1.11674277       2.37399812      -1.24022537
I        6.20625470       3.20561382      24.80696631      -0.23158325      -0.04762482      -0.35593885      -0.24754046       3.08607801      -5.55317892
I        6.95603238       9.75654276      12.32108738       0.03884843       0.06279384       0.07011923       0.45307933      -0.24133223       2.00398398
I        0.85332599       5.59211208      15.59196061      -0.20814116       0.06505665      -0.35717445      -0.09667861       3.12517618      -1.39980467
I       12.32598182       7.10353018      21.81338718       0.21917852       0.01245969      -0.36123994      -3.88977130      -0.63811553       2.86028195
I       12.81199968       9.93822782      12.81467967      -0.02500070       0.04526956       0.17351122      -0.37970501       2.33180439      -1.20091465
I        0.82808818       3.46162039      24.61397041      -0.04974946      -0.46069719      -0.10454416       0.84383777      -0.55809762       0.73892052
I        9.55853802       6.30488164      18.03224481       0.46511503      -0.05718217       0.08104430       2.86477685       0.38697383      -0.37283412
I        3.39528802      11.92900427      12.53764344      -0.25906383       0.08610160      -0.10402484      -3.89600924      -0.15097881       0.12179662
I        3.36893319       6.80563200      24.72800539       0.29780048       0.00526845      -0.21872778      -1.48901069       3.51492280       1.37973129
I        9.68329516       5.94560585      12.27796292       0.60192645       0.13271237      -0.09227901       2.99584200      -1.38929806      -1.56795498
H        4.17249046       8.03954005      21.35333679      -0.38710289      -0.33564182      -0.59959033       0.07852602      -0.05224029      -0.11342322
H        9.46966894       9.05760602      21.20375143      -0.66407311       0.17430913       0.05110632       0.07029258       0.35750386      -0.04378542
H        9.74495362       3.43526631      23.26426739       0.14388806      -0.08735683      -0.07858197       0.01416319       0.13035573       0.00557013
H        3.45335723       7.95686130      16.01333213       0.11026032      -0.33748378       0.30094264      -0.12423687      -0.04083488      -0.12627687
H        2.65246290       2.27277866      14.10403709      -0.85554198      -0.59418068      -0.30784957       0.00565197       0.03075294       0.08815781
H        9.12757677      11.03066539      22.35836807       0.06719352       0.22118882      -0.23390394      -0.12019505       0.24596428      -0.03187497
H       10.49522295       9.10376762      15.44609512      -0.46828501       0.25799789      -0.03213759      -0.15608105      -0.27136977      -0.09101207
H        2.24155574       8.18385896      14.56417827      -0.06371192      -0.24341563      -0.07856654      -0.09342551      -0.07251452      -0.01780659
H        3.07761217       9.15220593      20.21118361       0.11510366      -1.00718037       0.97115849       0.00334227      -0.04754018       0.09240652
H       11.21183309      10.17169368      21.98796892      -1.11215514       0.66505055       1.02645783      -0.08161425      -0.02484805       0.04504748
H       10.66011327       2.57187094      21.89476392      -0.93599627       0.54019189       0.37428989      -0.29163421      -0.15960777       0.02074645
H        4.01696629       8.73888068      14.41084554      -0.12518637      -0.05150356       0.34977175       0.09700838       0.01258080      -0.06308562
H        2.67862997      10.46218337      22.36961480      -0.59302474       0.31270928       0.00521896       0.16536334      -0.11821993       0.13914086
H       10.42148903       2.14948547      16.78078574       0.47146294      -0.66877008       0.18380888       0.03978335      -0.10617872       0.12511680
H        8.85234345       5.04651816      21.50534061       1.00720819      -0.27925302       0.47523384       0.03384540      -0.10699315       0.16138338
H        3.30412381       4.59624472      21.48057465      -0.18768064       0.43652701      -0.21896377      -0.18734924      -0.03581434      -0.33112563
H        4.30840711      10.17594614      22.31212075       0.77245152       0.63869255      -0.17413278       0.02183451      -0.02008246      -0.07397542
H        8.72057259       2.28254903      16.79996297       0.84318842       0.22895688       0.05885892      -0.01273022      -0.13864968      -0.09501087
H        9.71973078       4.23465206      20.37858738       0.28732608      -0.12741513      -0.25212002       0.16535192      -0.18713638       0.23335521
H        4.19311232       3.95314009      22.72944696      -0.09037778       0.23097716       0.16902192      -0.14912691      -0.20270101      -0.00111191
H        3.31225138       9.24738226      23.38623840      -0.01669212      -0.08846660      -0.36774885       0.15630740       0.08010535       0.10818855
H       10.37138080       9.78419046      24.23473273      -0.85748430      -0.19157412      -0.23576822       0.14097526      -0.23395104      -0.03973640
H       10.59343383       4.92484236      21.57365202       0.45689052       1.24558857       0.31755017       0.13107779       0.06599857      -0.00346358
H        2.51417568       3.81795350      22.81474652       0.40881134      -0.43449317      -0.67948155       0.26798127       0.07635894      -0.04920902
C        3.54045536       2.82922888      14.46014776      -0.45401208      -0.05951210       0.50591419      -0.43306646       0.74854209       0.43762421
C        9.87407357       9.95929444      22.19912569       1.73083904      -0.44641079      -2.25046619      -0.00265920      -0.18352674       0.14500075
C        9.40392133       9.55151552      15.40749566      -0.58641494      -1.14148660       1.03045882      -0.15876061       0.15854354       0.46024919
C        3.16381861       8.61014200      15.12322499      -0.39166723       0.96731701      -0.93539564       0.17115877      -0.35793275      -0.10772963
Pb       6.80099973      12.76587251      24.99601447      -0.31495189      -0.07206416      -0.42383905       1.48068160       2.91650987       0.75748635
Pb       6.72233945       6.34567119      24.89760876       0.02077571       0.11305867       0.31711608      -0.41390315      -0.06057823      -1.88447405
Pb       0.02973180       6.22400542      18.42632315       0.31554627       0.34886514      -0.23914128       3.00880287      -2.90699282      -1.58215220
Pb       0.36539153       6.45186520      24.91922254      -0.26037241       0.31162656       0.24416932      -0.65302985      -1.01581541      -1.19150135
N        3.38759051       9.69378981      22.39372814      -0.50479906      -0.76030903      -0.16644401      -0.51146127      -0.16146264      -0.19159479
N        9.64591924       2.80746512      16.70013688      -0.89316524      -1.20954458      -0.82214827       0.06404799      -0.51211268       0.04584358