768
Lattice="25.625769195560288 0.1442251890105203 -0.06288156074118129 -0.08544278206367628 25.555723663810763 -0.05823012908242495 0.07213310111533067 -0.1299461261962401 25.66616038795785" Properties=species:S:1:pos:R:3:forces:R:3:momenta:R:3 pbc="T T T"
I        6.05945358       1.22508144       2.34970071       0.02318135       0.01346183      -0.33842834      -0.97116225       0.00297764      -0.45478396
I        5.35389103      12.86759478       8.63209765      -0.07813857      -0.04025343       0.36796431       1.34903032      -1.64048912      -2.70848752
I        5.08748758      10.20001447       4.71591677       0.12710628      -0.04649381       0.01621746       2.23685418      -0.78233082      -1.57157769
I        6.12706241       3.78553688       5.78798737      -0.01048114       0.09761955      -0.02609697       1.26920768       0.33591583       1.06545316
I       25.36426978      13.02857362       8.63248506      -0.10406000      -0.02701858      -0.08129078       1.01617552       0.82200899      -0.38538761
I       11.87591290       1.29300700       2.21486661      -0.16208730      -0.07113092       0.07722831       1.57445778       1.01029833       2.17817532
I       11.63913551       3.79190768       5.99462233       0.10877263       0.07551503       0.02913529      -0.09287213       0.91176728      -0.88793685
I       25.10218973      10.24816548       4.72116137       0.19064978       0.16736151      -0.07526419      -0.82505786       2.54042866      -1.42150043
I        8.76601164      13.27374239      11.44209218       0.25853416       0.26199477       0.01029194       1.27438092       0.49800874      -1.38785259
I        2.64114274       6.51767980       5.82905553      -0.37250103       0.00777388      -0.09059118      -1.39328307       0.97642167       1.46303853
I        2.71845869       1.11045101       5.06341098      -0.36499532       0.06171009      -0.13334944       1.26266329      -0.23105055       0.74586823
I        8.97669965      13.12449768       5.34466037       0.16953200      -0.07658090       0.06900896      -0.01198312       1.14148047      -0.98494290
H        3.18129251       2.81973041       1.49316195       0.54591389      -0.28343536      -0.14936630       0.06735803       0.05468861      -0.10898402
H        7.89693985       4.36125357       1.46726053      -0.56932362       0.02000607       0.25298157       0.19416994      -0.06565623       0.26394704
H        7.93786138       9.85901735       1.92628327      -0.61958731      -0.27925769      -0.05943693       0.00856020      -0.05652596      -0.04197303
H        1.81157005       3.17366375       7.59799983      -0.27589104      -0.56438930      -0.29608315       0.03222209      -0.06258866       0.09695027
H        1.69051792       8.76264103       8.38321739      -0.86254902      -0.39654865      -0.31997782       0.07114003       0.11914207       0.05273108
H        9.64731190       4.76952840       1.66194643       0.01759123      -0.43665023       0.07576487      -0.03223372      -0.09884723       0.07548595
H        7.39101347       3.67111748       8.75190001       0.40387667       0.74756524       0.22312913       0.08008815       0.21725097       0.05462523
H        3.61547158       3.21497647       8.01129452      -0.01149206      -0.12670994       0.11398016      -0.02484478       0.00269361      -0.02550799
H        2.45020621       4.31287938       0.76989934      -0.00751281      -0.12535440      -0.08827086       0.03944681      -0.10990960      -0.03069579
H        9.14086737       3.00786643       1.19077896      -0.01929351       0.13741519      -0.56253335       0.03065068      -0.02160271       0.02498449
H        8.77660555      10.29439173       3.46776649      -0.25753231       0.78483216       0.21855150      -0.08360393      -0.08250523      -0.14162566
H        2.40534079       2.67088916       9.39778904       0.02885168       0.83146816      -1.63873792       0.09269571       0.14426035       0.02760050
H        2.42077509       3.60454235       3.68222162       0.10017944      -0.00408861      -0.08686177      -0.04960716       0.28112386      -0.07460009
H        8.69288299       8.85708527      10.45789412      -0.08831594      -0.19913948      -0.45327706      -0.24256597      -0.11644072      -0.09056723
H        9.64754194      12.32742936       2.15017272      -0.55201161      -0.62780366      -0.27732730       0.20948692       0.04796158      -0.14715455
H        1.66256927      11.14337017       3.13406711      -0.50076661       0.07828990       0.03752073      -0.20757591       0.01863523       0.09999155
H        1.78984146       4.98215427       2.96598756      -1.04185170       0.66391976       0.17117861      -0.02965455      -0.08795267       0.03076609
H        8.04554243      10.29842051      10.94171731       0.27806690      -0.00702756       0.30846735       0.15032661      -0.12081177       0.12921029
H        7.96465142      12.33357526       2.02960349       0.61360431      -0.62541596      -0.03870116      -0.03024616      -0.00411238      -0.09560288
H        2.54205200      11.64877718       1.72106968      -0.06788256       0.40399047       0.28757808      -0.12173492      -0.13392876       0.12706198
H        3.42290405       4.77686348       2.99413897       0.24999664       0.06886193      -0.16649355      -0.09554395      -0.09096906      -0.02147626
H        9.01489890       4.35787026       3.78345327       0.01697224      -0.49591718       0.41836718       0.11379409       0.05325295      -0.15225686
H        8.86848738      11.77356260       0.76747514       0.17584430      -0.25804918      -0.36993256      -0.01121440       0.00222820      -0.06642686
H        3.30170999      10.93810987       3.09932905       0.33888092       0.20951525       0.11995238       0.05820443       0.05257233      -0.16117747
C        2.36900236       9.67646876       8.12859354       0.98075352       1.11599504       0.04171933      -0.39038084       0.19876864      -0.70373957
C        8.88245793       3.94261863       1.76457890       0.52201494      -0.65530590       0.50439274       0.07351666       0.61761097       0.10878184
C        8.52689604       3.99568406       8.83959227      -0.42607774      -0.35985229      -0.25142034      -0.23072382      -0.91651451       0.66259841
C        2.56016830       3.31798344       8.40566326       0.12307760      -0.77996463       1.89084627       0.73462451      -0.26779336      -0.44128281
Pb       5.78927680       6.93459324       5.32367109      -0.12133971       0.00158379       0.20595131       0.37515772       1.22444828      -0.62433199
Pb       5.82137404      13.19110781       5.44532097      -0.16294140       0.11512732       0.31222515      -0.08145901      -0.80146890      -1.22675702
Pb      24.84389023      13.56665466      11.63207747       0.18675264       0.05076807       0.16380402       1.54761777      -0.22917552       0.74207852
Pb      25.02562786      13.58520944       5.31693789       0.00219907       0.00426069      -0.00054928       1.86427676      -1.76693970       0.74830058
N        2.51763588       4.27775232       2.88926571       0.56225864      -1.13933810      -0.29404346      -0.82886702      -0.01086465       0.04569023
N        8.84828468       9.90007934      10.38112951      -1.20590149      -0.40318708       0.06078571       0.69694353      -0.00063842      -0.01103563
N        8.82669876      11.74170348       1.79762775      -0.15951486       1.81015516       1.30566739       0.75700920      -0.37299203       0.00020885
N        2.45320387      10.94552235       2.50270309       0.08112368      -0.72027439      -0.57202605       0.25026901      -0.00395155      -0.32533008
I        5.83904654       7.52309840       8.59710631       0.18523520      -0.00866594       0.02797942       1.35090110      -0.68730802       0.49014574
I        5.34245359       6.50688388       2.13612028      -0.06027539      -0.09511159       0.04267606      -0.01360114       3.29355209       1.22538309
I        5.20101883       3.94217761      11.22098198      -0.07608275      -0.02640710      -0.00743441       1.81082618      -0.43865383       1.98395602
I        6.01112633      10.20416600      25.26364549      -0.09297951       0.09163845       0.04524422      -1.33923957      -1.70048118       1.45632190
I       25.17937045       6.49517625       2.37372265       0.09326984      -0.00804220      -0.27743630       1.29306712       0.33467318      -0.47788641
I       11.87792377       7.43215964       8.72204351      -0.11075335       0.00696400       0.08300538      -1.44038834       1.66753960       0.83487587
I       11.56502618      10.33458123      25.27135265       0.30457401      -0.08406911       0.03720468      -0.41983666      -0.63127549       0.11888691
I       25.38021050       4.09884767      11.55549626       0.00768389      -0.06611610      -0.18227702      -2.44186397       0.71360767       1.83117957
I        8.90223587       6.90443198       4.65838314       0.21882028      -0.01476288       0.14020814      -0.08315363      -0.07899832      -1.01167341
I        2.52716434      12.75047673      25.08712126      -0.22924378       0.02541542       0.03960919      -0.64833784      -1.37328324       0.63272521
I        2.54813889       7.57956651      11.36113849      -0.06890641      -0.01134033       0.05667465      -2.05801853       1.02941236      -0.86819540
I        8.98994818       6.81666068      24.74187672      -0.02090653      -0.14682624       0.01623271      -1.07146833      -0.81153534       0.53866148
H        3.44982912       9.30265415       8.02489105      -0.23106341       0.34844390       0.02087706      -0.09698528       0.04229960      -0.05893105
H        7.85409607      10.05802936       8.56108481       0.35139375       0.26284126      -0.04631018      -0.14140734      -0.08663238       0.06838026
H        8.89618797       4.12900782       9.92133593      -0.11429382      -0.22482356       0.14873838      -0.04546376       0.09743591       0.09836839
H        2.17323910       8.78138027       2.61836385      -0.23000607       0.81177117      -0.51070126      -0.05995509      -0.13169208       0.11114380
H        1.41474710       3.04306694       1.56386446      -0.31723234      -0.09849389      -0.15194377      -0.11259586       0.14321014      -0.15984702
H        8.78132126      11.57655349       9.05865409      -0.12730833      -0.55966015       0.06483567       0.11703477      -0.02107307      -0.18464681
H        9.69834364       9.84941380       2.04551647      -0.23858779       0.18425585      -0.06240749      -0.12151494      -0.39389191       0.03812503
H        1.48871963       9.63871312       1.14187734      -0.39259814      -0.03049836      -0.29487950      -0.02309433      -0.07149037       0.13625969
H        1.99348622      10.31472924       7.20638695      -0.01729006      -0.57343499       0.31999351      -0.05963295       0.10803080      -0.13736330
H        9.68508440      10.13257130       8.48149391      -0.23783099       0.00197935      -0.16461787      -0.10035653      -0.18253335       0.06490780
H        9.15064282       3.19949842       8.23625565       0.61632812      -0.17874063      -0.03822276      -0.32137320      -0.00974623       0.15501284
H        3.30324248       9.36782868       1.33131630      -0.37427782       0.15616563      -0.03961129      -0.02749399       0.02181668       0.04851212
H        1.43736062      11.09573534       9.49191900       0.41606962       0.04984418      -0.59533297       0.17888979       0.07320080       0.05425786
H        9.70116620       2.83309866       3.33098389       0.34135908      -0.03482990       0.31567326       0.07240472       0.17733338       0.07160797
H        8.06581527       6.06259647       8.62614012      -0.51162550       0.48077870       0.60913385       0.02015437       0.19553055      -0.05649947
H        2.27524407       5.38954695       8.02524221      -0.12451527       0.15302453       0.41388497       0.10532839       0.04805119      -0.16504438
H        3.12508334      11.28308085       9.38324661       0.61902542       0.75721361      -0.47364257      -0.02536816      -0.02365696      -0.28713319
H        8.03021602       2.96811611       3.50454708       0.04277488       0.14537724      -0.10620676      -0.18554354      -0.12725513      -0.05575936
H        8.56124947       5.46757730       7.18585212       0.25491580      -0.57925836       1.42044019      -0.05902212       0.07216972      -0.11426384
H        2.94658033       5.10628972       9.67489729      -0.13979486      -0.26800596      -0.56159751       0.26144418       0.09473545      -0.24552329
H        2.51217190      10.02633416      10.20816269      -0.02192047      -0.16573803      -0.14285321       0.03481307      -0.01749271       0.16845913
H        9.74424533      10.01643557      10.87998493       0.58097792       0.80425583       0.46921446       0.15707949       0.19626495       0.10008057
H        9.73747014       5.74280475       8.42646321       0.42232008       0.23122321       0.42632452      -0.01158110      -0.13137546      -0.06164972
H        1.31166832       4.79258295       9.36734079      -0.00579838       0.19992919      -0.29906473      -0.04434820      -0.07742396      -0.08047613
C        2.38368484       3.55208892       1.55501274      -0.00457938       0.74712712       0.86886402       0.75741889       0.22925284       0.54561741
C        8.78348366      10.46061460       9.01937960       0.36860994       0.10749093      -0.61919001       0.54842438      -0.19664978       0.30975441
C        8.78119255      10.37874581       2.36470976       1.09660022      -0.97966599      -0.54896356      -0.64563266       0.38576726      -0.02420771
C        2.31883217       9.59454458       1.83829818       0.97254033      -0.88118389       1.05936418      -0.19635412       0.57821972       0.75061627
Pb       5.65212388      13.57751745      11.94449945      -0.21413695      -0.07913111      -0.41018504      -1.01937982      -0.20440511      -0.30020221
Pb       5.77150962       7.05913426      11.99069863      -0.11999239      -0.03012694      -0.19861611       0.98089813       0.30718428       0.89473191
Pb      24.92555024       7.15597313       5.31118309       0.14854975      -0.07471611       0.08628951       2.15884971      -0.49523842       1.36720930
Pb      25.04960090       7.24451464      11.83138553       0.01162264      -0.03503452       0.03052370       2.30956796      -0.72264860      -0.76826793
N        2.36760415      10.60650446       9.33274435      -0.64179488      -1.04684058       1.04298732      -0.44294573       0.55930499       0.04488629
N        8.90273810       3.46995510       3.21494958      -0.29968647       1.38938243      -0.85767241       0.43015120      -0.01426908      -0.16038333
N        8.76388837       5.36845366       8.27344628      -0.56990926      -0.11222603      -2.60392780       0.46025770       0.01907349       0.06691208
N        2.25434688       4.74991943       8.89109720       0.47703375       0.47862487       0.49446547      -0.62644674      -0.22903242       0.02070658
I        6.09552013       1.16010838      15.18278090       0.02318135       0.01346183      -0.33842834      -0.97116225       0.00297764      -0.45478396
I        5.38995758      12.80262172      21.46517784      -0.07813857      -0.04025343       0.36796431       1.34903032      -1.64048912      -2.70848752
I        5.12355413      10.13504141      17.54899696       0.12710628      -0.04649381       0.01621746       2.23685418      -0.78233082      -1.57157769
I        6.16312896       3.72056382      18.62106756      -0.01048114       0.09761955      -0.02609697       1.26920768       0.33591583       1.06545316
I       25.40033633      12.96360056      21.46556525      -0.10406000      -0.02701858      -0.08129078       1.01617552       0.82200899      -0.38538761
I       11.91197945       1.22803394      15.04794680      -0.16208730      -0.07113092       0.07722831       1.57445778       1.01029833       2.17817532
I       11.67520206       3.72693462      18.82770252       0.10877263       0.07551503       0.02913529      -0.09287213       0.91176728      -0.88793685
I       25.13825628      10.18319242      17.55424156       0.19064978       0.16736151      -0.07526419      -0.82505786       2.54042866      -1.42150043
I        8.80207819      13.20876933      24.27517237       0.25853416       0.26199477       0.01029194       1.27438092       0.49800874      -1.38785259
I        2.67720929       6.45270674      18.66213572      -0.37250103       0.00777388      -0.09059118      -1.39328307       0.97642167       1.46303853
I        2.75452524       1.04547795      17.89649117      -0.36499532       0.06171009      -0.13334944       1.26266329      -0.23105055       0.74586823
I        9.01276620      13.05952462      18.17774056       0.16953200      -0.07658090       0.06900896      -0.01198312       1.14148047      -0.98494290
H        3.21735906       2.75475735      14.32624214       0.54591389      -0.28343536      -0.14936630       0.06735803       0.05468861      -0.10898402
H        7.93300640       4.29628051      14.30034072      -0.56932362       0.02000607       0.25298157       0.19416994      -0.06565623       0.26394704
H        7.97392793       9.79404429      14.75936346      -0.61958731      -0.27925769      -0.05943693       0.00856020      -0.05652596      -0.04197303
H        1.84763660       3.10869069      20.43108002      -0.27589104      -0.56438930      -0.29608315       0.03222209      -0.06258866       0.09695027
H        1.72658447       8.69766797      21.21629758      -0.86254902      -0.39654865      -0.31997782       0.07114003       0.11914207       0.05273108
H        9.68337845       4.70455534      14.49502662       0.01759123      -0.43665023       0.07576487      -0.03223372      -0.09884723       0.07548595
H        7.42708002       3.60614442      21.58498020       0.40387667       0.74756524       0.22312913       0.08008815       0.21725097       0.05462523
H        3.65153813       3.15000341      20.84437471      -0.01149206      -0.12670994       0.11398016      -0.02484478       0.00269361      -0.02550799
H        2.48627276       4.24790632      13.60297953      -0.00751281      -0.12535440      -0.08827086       0.03944681      -0.10990960      -0.03069579
H        9.17693392       2.94289337      14.02385915      -0.01929351       0.13741519      -0.56253335       0.03065068      -0.02160271       0.02498449
H        8.81267210      10.22941867      16.30084668      -0.25753231       0.78483216       0.21855150      -0.08360393      -0.08250523      -0.14162566
H        2.44140734       2.60591610      22.23086923       0.02885168       0.83146816      -1.63873792       0.09269571       0.14426035       0.02760050
H        2.45684164       3.53956929      16.51530181       0.10017944      -0.00408861      -0.08686177      -0.04960716       0.28112386      -0.07460009
H        8.72894954       8.79211221      23.29097431      -0.08831594      -0.19913948      -0.45327706      -0.24256597      -0.11644072      -0.09056723
H        9.68360849      12.26245630      14.98325291      -0.55201161      -0.62780366      -0.27732730       0.20948692       0.04796158      -0.14715455
H        1.69863582      11.07839711      15.96714730      -0.50076661       0.07828990       0.03752073      -0.20757591       0.01863523       0.09999155
H        1.82590801       4.91718121      15.79906775      -1.04185170       0.66391976       0.17117861      -0.02965455      -0.08795267       0.03076609
H        8.08160898      10.23344745      23.77479750       0.27806690      -0.00702756       0.30846735       0.15032661      -0.12081177       0.12921029
H        8.00071797      12.26860220      14.86268368       0.61360431      -0.62541596      -0.03870116      -0.03024616      -0.00411238      -0.09560288
H        2.57811855      11.58380412      14.55414987      -0.06788256       0.40399047       0.28757808      -0.12173492      -0.13392876       0.12706198
H        3.45897060       4.71189042      15.82721916       0.24999664       0.06886193      -0.16649355      -0.09554395      -0.09096906      -0.02147626
H        9.05096545       4.29289720      16.61653346       0.01697224      -0.49591718       0.41836718       0.11379409       0.05325295      -0.15225686
H        8.90455393      11.70858954      13.60055533       0.17584430      -0.25804918      -0.36993256      -0.01121440       0.00222820      -0.06642686
H        3.33777654      10.87313681      15.93240924       0.33888092       0.20951525       0.11995238       0.05820443       0.05257233      -0.16117747
C        2.40506891       9.61149570      20.96167373       0.98075352       1.11599504       0.04171933      -0.39038084       0.19876864      -0.70373957
C        8.91852448       3.87764557      14.59765909       0.52201494      -0.65530590       0.50439274       0.07351666       0.61761097       0.10878184
C        8.56296259       3.93071100      21.67267246      -0.42607774      -0.35985229      -0.25142034      -0.23072382      -0.91651451       0.66259841
C        2.59623485       3.25301038      21.23874345       0.12307760      -0.77996463       1.89084627       0.73462451      -0.26779336      -0.44128281
Pb       5.82534335       6.86962018      18.15675128      -0.12133971       0.00158379       0.20595131       0.37515772       1.22444828      -0.62433199
Pb       5.85744059      13.12613475      18.27840116      -0.16294140       0.11512732       0.31222515      -0.08145901      -0.80146890      -1.22675702
Pb      24.87995678      13.50168160      24.46515766       0.18675264       0.05076807       0.16380402       1.54761777      -0.22917552       0.74207852
Pb      25.06169441      13.52023638      18.15001808       0.00219907       0.00426069      -0.00054928       1.86427676      -1.76693970       0.74830058
N        2.55370243       4.21277926      15.72234590       0.56225864      -1.13933810      -0.29404346      -0.82886702      -0.01086465       0.04569023
N        8.88435123       9.83510628      23.21420970      -1.20590149      -0.40318708       0.06078571       0.69694353      -0.00063842      -0.01103563
N        8.86276531      11.67673042      14.63070794      -0.15951486       1.81015516       1.30566739       0.75700920      -0.37299203       0.00020885
N        2.48927042      10.88054929      15.33578328       0.08112368      -0.72027439      -0.57202605       0.25026901      -0.00395155      -0.32533008
I        5.87511309       7.45812534      21.43018650       0.18523520      -0.00866594       0.02797942       1.35090110      -0.68730802       0.49014574
I        5.37852014       6.44191082      14.96920047      -0.06027539      -0.09511159       0.04267606      -0.01360114       3.29355209       1.22538309
I        5.23708538       3.87720455      24.05406217      -0.07608275      -0.02640710      -0.00743441       1.81082618      -0.43865383       1.98395602
I        5.97505978      10.26913907      12.43056529      -0.09297951       0.09163845       0.04524422      -1.33923957      -1.70048118       1.45632190
I       25.21543700       6.43020319      15.20680284       0.09326984      -0.00804220      -0.27743630       1.29306712       0.33467318      -0.47788641
I       11.91399032       7.36718658      21.55512370      -0.11075335       0.00696400       0.08300538      -1.44038834       1.66753960       0.83487587
I       11.52895963      10.39955430      12.43827245       0.30457401      -0.08406911       0.03720468      -0.41983666      -0.63127549       0.11888691
I       25.41627705       4.03387461      24.38857645       0.00768389      -0.06611610      -0.18227702      -2.44186397       0.71360767       1.83117957
I        8.93830242       6.83945892      17.49146333       0.21882028      -0.01476288       0.14020814      -0.08315363      -0.07899832      -1.01167341
I        2.49109779      12.81544980      12.25404106      -0.22924378       0.02541542       0.03960919      -0.64833784      -1.37328324       0.63272521
I        2.58420544       7.51459345      24.19421868      -0.06890641      -0.01134033       0.05667465      -2.05801853       1.02941236      -0.86819540
I        8.95388163       6.88163375      11.90879652      -0.02090653      -0.14682624       0.01623271      -1.07146833      -0.81153534       0.53866148
H        3.48589567       9.23768109      20.85797124      -0.23106341       0.34844390       0.02087706      -0.09698528       0.04229960      -0.05893105
H        7.89016262       9.99305630      21.39416500       0.35139375       0.26284126      -0.04631018      -0.14140734      -0.08663238       0.06838026
H        8.93225452       4.06403476      22.75441612      -0.11429382      -0.22482356       0.14873838      -0.04546376       0.09743591       0.09836839
H        2.20930565       8.71640721      15.45144404      -0.23000607       0.81177117      -0.51070126      -0.05995509      -0.13169208       0.11114380
H        1.45081365       2.97809388      14.39694465      -0.31723234      -0.09849389      -0.15194377      -0.11259586       0.14321014      -0.15984702
H        8.81738781      11.51158043      21.89173428      -0.12730833      -0.55966015       0.06483567       0.11703477      -0.02107307      -0.18464681
H        9.73441019       9.78444074      14.87859666      -0.23858779       0.18425585      -0.06240749      -0.12151494      -0.39389191       0.03812503
H        1.52478618       9.57374006      13.97495753      -0.39259814      -0.03049836      -0.29487950      -0.02309433      -0.07149037       0.13625969
H        2.02955277      10.24975618      20.03946714      -0.01729006      -0.57343499       0.31999351      -0.05963295       0.10803080      -0.13736330
H        9.72115095      10.06759824      21.31457410      -0.23783099       0.00197935      -0.16461787      -0.10035653      -0.18253335       0.06490780
H        9.18670937       3.13452536      21.06933584       0.61632812      -0.17874063      -0.03822276      -0.32137320      -0.00974623       0.15501284
H        3.33930903       9.30285562      14.16439649      -0.37427782       0.15616563      -0.03961129      -0.02749399       0.02181668       0.04851212
H        1.47342717      11.03076228      22.32499919       0.41606962       0.04984418      -0.59533297       0.17888979       0.07320080       0.05425786
H        9.73723275       2.76812560      16.16406408       0.34135908      -0.03482990       0.31567326       0.07240472       0.17733338       0.07160797
H        8.10188182       5.99762341      21.45922031      -0.51162550       0.48077870       0.60913385       0.02015437       0.19553055      -0.05649947
H        2.31131062       5.32457389      20.85832240      -0.12451527       0.15302453       0.41388497       0.10532839       0.04805119      -0.16504438
H        3.16114989      11.21810779      22.21632680       0.61902542       0.75721361      -0.47364257      -0.02536816      -0.02365696      -0.28713319
H        8.06628257       2.90314305      16.33762727       0.04277488       0.14537724      -0.10620676      -0.18554354      -0.12725513      -0.05575936
H        8.59731602       5.40260424      20.01893231       0.25491580      -0.57925836       1.42044019      -0.05902212       0.07216972      -0.11426384
H        2.98264688       5.04131666      22.50797748      -0.13979486      -0.26800596      -0.56159751       0.26144418       0.09473545      -0.24552329
H        2.54823845       9.96136110      23.04124288      -0.02192047      -0.16573803      -0.14285321       0.03481307      -0.01749271       0.16845913
H        9.78031188       9.95146251      23.71306512       0.58097792       0.80425583       0.46921446       0.15707949       0.19626495       0.10008057
H        9.77353669       5.67783169      21.25954340       0.42232008       0.23122321       0.42632452      -0.01158110      -0.13137546      -0.06164972
H        1.34773487       4.72760989      22.20042098      -0.00579838       0.19992919      -0.29906473      -0.04434820      -0.07742396      -0.08047613
C        2.41975139       3.48711586      14.38809293      -0.00457938       0.74712712       0.86886402       0.75741889       0.22925284       0.54561741
C        8.81955021      10.39564154      21.85245979       0.36860994       0.10749093      -0.61919001       0.54842438      -0.19664978       0.30975441
C        8.81725910      10.31377275      15.19778995       1.09660022      -0.97966599      -0.54896356      -0.64563266       0.38576726      -0.02420771
C        2.35489872       9.52957152      14.67137837       0.97254033      -0.88118389       1.05936418      -0.19635412       0.57821972       0.75061627
Pb       5.68819043      13.51254439      24.77757964      -0.21413695      -0.07913111      -0.41018504      -1.01937982      -0.20440511      -0.30020221
Pb       5.80757617       6.99416120      24.82377882      -0.11999239      -0.03012694      -0.19861611       0.98089813       0.30718428       0.89473191
Pb      24.96161679       7.09100007      18.14426328       0.14854975      -0.07471611       0.08628951       2.15884971      -0.49523842       1.36720930
Pb      25.08566745       7.17954158      24.66446572       0.01162264      -0.03503452       0.03052370       2.30956796      -0.72264860      -0.76826793
N        2.40367070      10.54153140      22.16582454      -0.64179488      -1.04684058       1.04298732      -0.44294573       0.55930499       0.04488629
N        8.93880465       3.40498204      16.04802977      -0.29968647       1.38938243      -0.85767241       0.43015120      -0.01426908      -0.16038333