768
Lattice="38.16606883306081 0.7708101007676014 0.3666927628512125 -0.3296249581406084 22.360322942442707 0.08526197331993467 -0.1800967783537251 -0.06462717078727989 19.468533293292147" Properties=species:S:1:pos:R:3:forces:R:3:momenta:R:3 pbc="T T T"
I       16.55062625       5.97727668       3.69368661      -0.07915521      -0.03240010       0.11377578      -0.18228441       0.03200350      -1.10602250
I       17.18405514       9.71203097       1.43091121      -0.29907138       0.29438014      -0.11084498      -2.19983395       0.70600670       0.30413974
I        7.37189750      11.27655894       3.70966245      -0.00227122       0.08956789      -0.13613813       0.95173359       0.91643455       0.46277752
I        6.69576037       4.10236193       0.96275312       0.22696112       0.09662285       0.25396802      -0.98854933       1.61998374       1.06436732
I       14.98768580       2.45552068       1.65807701      -0.05399163      -0.12100910      -0.23376230       1.09778110      -0.02358450      -2.01536788
I       -0.17056482      12.97924473       3.65640853      -0.36915340      -0.13555787       0.02197021       0.98142733      -0.48672026       0.38396423
I        9.24914867       7.75928277       1.12729562       0.09538378       0.18134242      -0.03912878       0.32339440       1.20050687       1.31877048
I        5.11245078       7.59419985       3.70599257       0.07599028      -0.06963327      -0.04774125       0.53420001      -1.31140497      -0.84954954
I        1.51858399       5.36238999       1.33956140      -0.11712920       0.02793145      -0.15923368      -0.56637559       1.41998537       1.64351859
I       12.92343597      10.10154422       4.00239477       0.36278989      -0.06001313      -0.02036488      -1.28684332      -0.94452751      -0.13873392
I        3.50015009      11.05808572       1.11683159       0.32180951       0.02243571       0.00641093      -0.36763086      -0.50705515       2.80600067
I       10.69907460       4.14916402       3.71811725       0.22247435       0.18591989       0.00021480      -1.80331860       1.83026677       0.65810390
H        3.99123945       4.36832150       3.11846338      -0.03065169      -0.02100036      -0.03317400      -0.03637807      -0.04507568       0.11460609
H        9.77453022      11.22422156       2.01980458       0.04787388      -0.13922948       0.29838467      -0.04762295       0.10431776      -0.10581981
H        1.94775761       8.87365447       4.06705591      -0.10601271       0.32141168      -0.32090935      -0.26867542      -0.00028349       0.00383231
H       13.90359841       5.91940639       2.46661468      -0.03300657       0.02059494       0.46676495      -0.00687104       0.13204582      -0.10458998
H        2.55136087       3.34979819       3.60830238      -0.29671747      -0.33012476      -0.04029640       0.13233743       0.05661179      -0.04537252
H       10.51491814      11.49502204       0.24752399      -0.25708271       0.15669117       0.13849854       0.00369905       0.06880710       0.06019133
H        0.78362820       9.70834913       2.88560773      -0.05667786      -0.39422940      -0.62086311       0.18804106      -0.26102194      -0.08382828
H       12.23821336       6.70559017       1.95897901       0.41854848      -0.08030461       0.01605703       0.32773644       0.00394698       0.15937795
H        3.68530545       3.99692178       4.88889697       0.38759220      -0.52472367      -0.13411448      -0.11968898       0.17109897       0.14113397
H       11.48054688      12.13274033       1.74769914       0.10774868       0.27376932       0.11090265       0.07632707      -0.12005474      -0.11464576
H        0.37616360       9.65656768       4.58389651      -0.11722564      -0.02615572       0.48922242       0.06270476       0.01660109       0.00885826
H       13.48455395       6.06665007       0.70929009      -0.38265622       0.26983105       0.44109456      -0.01698352      -0.01003167       0.05474837
H        4.12504491       1.56387133       4.36357725       0.24308616      -0.23006752       0.05285977      -0.05127419       0.01353211       0.03514375
H        9.95483115      13.81860995       0.35510329       0.33157078      -0.13372710      -0.14285867      -0.05002117       0.13605960      -0.00460436
H        0.33997372       7.14950656       4.47764315       0.28725406      -0.12144065      -0.02280631      -0.08478293       0.11529610      -0.04616737
H       13.87574720       8.51185666       2.36068279       0.24013102      -0.02244737       0.05525803      -0.14368263      -0.00294230      -0.06951954
H        5.46757125       2.41206179       3.70324705      -0.78629507      -0.08761669       0.14754234       0.01319697      -0.11476315      -0.10975586
H        9.87496043      13.90903483       1.97883050      -0.51202453      -0.52108506       0.02827542      -0.05178004      -0.01541376      -0.17030086
H        0.62653265       7.19688292       2.81181891       0.11456736      -0.52990371      -0.27033671       0.28015737       0.04371362       0.14417731
H       13.74410561       8.43566303       0.69863015      -0.19044958       0.03129206      -0.19084213      -0.03064438      -0.01029166      -0.06955251
H        4.16736288       1.83804356       2.67977540       0.19961815       0.14986498       0.52570944       0.09439907       0.03913152      -0.09042770
H        8.62171629      13.16686094       1.03391979      -0.97142720      -0.50705213       0.43934849      -0.03409439       0.19758471      -0.03122241
H       37.33183356       8.51387831       3.81221922      -0.18496713       0.30216218      -0.13588126       0.07619029       0.04950815      -0.08056547
H       15.05788443       7.70698508       1.41463212       0.41419352       0.23799769       0.27496565       0.02299776      -0.04805918       0.03244695
C        3.61410879       3.57602754       3.83997685       0.73767427       0.21437528      -0.23956074       0.37197874       0.20125470       0.21403619
C       10.40193270      11.93942683       1.31621455      -0.30716929       0.01316769      -0.47655821      -0.02245539      -0.16529505       0.09531413
C        0.85901716       9.06791222       3.76647822       0.93945383       0.34757925       0.84118713       0.02911687       0.01319706       0.00089995
C       13.35647465       6.57634828       1.70579456      -0.56250199      -0.79021848      -1.28859081       0.23674204      -0.39342015      -0.43255316
Pb      36.98868535       4.40317026       1.48839567       0.02572440       0.21238341       0.17993339       1.07112527       0.81467235      -0.66757482
Pb      15.75259413      11.58986404       3.81368101       0.04382203       0.06590542       0.09446395      -0.16824221      -0.52903513      -0.07114522
Pb       6.31492955       9.39921878       1.29586620      -0.41636579       0.36051122      -0.03926462       2.81705273       1.64660063      -1.46065062
Pb       8.08729809       5.85280341       3.64550648      -0.25428791      -0.20718260       0.02632085       0.18298874      -0.89285890      -0.85366408
N        4.41642120       2.28024732       3.63931846      -0.28555388       0.62295641      -0.33648240      -0.22404792      -0.35967484       0.36426782
N        9.63745847      13.23921687       1.18310837       1.51937483       0.62302941      -0.29535966      -0.29908787       0.77690508      -0.51418768
N        0.21559752       7.73571011       3.61865197      -0.73282113       0.24624345      -0.05396663       0.50194139      -0.28415803       0.14835593
N       14.04676936       7.87972751       1.54504116       0.19150729      -0.01876997       0.21774838      -0.17785422       0.13753572      -0.17063225
I       16.30287072       5.65840264       8.68838331       0.00071091       0.15899723      -0.02853664      -0.72229782      -2.45478945      -0.59996191
I       17.07566889       9.97839371       6.50551416       0.08591014      -0.14668939      -0.08822374      -1.05992444      -1.02452501       2.73946278
I        7.21030359      11.49133746       8.55275123       0.13634362      -0.16693622       0.08224442      -0.28447386      -0.12294071       1.01586178
I        7.02382859       3.88402975       5.78054819       0.05372013       0.18994787       0.38552728       0.28431423       0.99785407      -0.24546942
I       14.59123652       2.28835589       6.19158458       0.32571339       0.00714861      -0.05899038       0.74297035       0.06382113      -0.86177940
I       37.74377787      13.85353637       8.84299871       0.11752035      -0.21751981      -0.10434962      -1.16877198       0.01053037      -0.10388975
I        9.07336266       7.77597894       6.01152613       0.07290170       0.09674261      -0.02017534       0.20994093      -0.44029219       2.36469608
I        5.21838349       7.44827593       8.41728438       0.16121130      -0.10666370       0.18100856       0.38790996      -0.69541902       1.82305524
I        1.12557673       5.50672395       5.98985774      -0.10355562      -0.02916230       0.26831142       0.12517071       0.99711845      -1.08546297
I       13.22678821       9.88010255       8.72442910      -0.08059968       0.29310768      -0.17077580       1.38957237       0.48298227       0.68084702
I        3.30576102      11.02580229       6.10656800       0.18033637       0.02650589       0.06632105       1.27462730      -3.18482558      -0.60129467
I       11.11545835       4.17052463       8.58607846      -0.29603391       0.33093325      -0.05028116      -1.90962693      -1.26839290      -0.58174271
H        2.66310363       3.30362177       8.05358928       0.04454574      -0.44867551       0.08369762       0.10980071      -0.08174838      -0.03879591
H       10.31363233      11.06621497       7.14977751      -0.14359026       0.66374948      -1.07781262      -0.02145459      -0.09075245       0.15559359
H        0.90187957       9.44385870       7.99415104       0.37057039      -0.04616278       0.93481288      -0.04468550      -0.18176312      -0.02641674
H       13.40346137       6.00955252       5.36627250      -0.07927876      -0.08045482      -0.03893708      -0.09626095       0.05101532      -0.03703474
H        3.78265605       4.12946221       9.15094174       0.13301611       0.54728153       0.29267493      -0.06965591      -0.02476203      -0.08263760
H       10.25262320      11.08318007       5.30780172       0.15988926       0.66268697       0.76246232       0.03413444      -0.05223006       0.12063097
H        0.97251978       9.29408902       9.85665311      -0.17879126      -0.02389329      -0.30276326      -0.05229616       0.21878312      -0.11907513
H       13.15842272       5.98154975       7.12824453       0.46452169       0.17547084       0.42138414      -0.07299338      -0.01414670       0.00655675
H        4.06368229       4.08153722       7.37656575       0.51033386       1.13329163      -1.18973117      -0.24836226       0.03652175       0.03842410
H       11.62579747      11.83556654       6.28182086       0.60815010       0.50141567      -0.38319650       0.07419840       0.05847006      -0.10265145
H        2.11304491       8.35718926       8.85365186      -0.19012129      -0.06464349      -0.19947538      -0.12897052       0.04727217      -0.00703125
H       12.25867740       7.22713431       6.13111634       0.44166775       0.00648515      -0.12272062       0.02726961      -0.03615161       0.03454437
H        5.58468001       2.63802421       8.57395402       0.62196076      -0.08701255       0.07484592       0.03177510      -0.13230604      -0.12035609
H       10.11747924      13.56972932       7.13332824       0.00194670      -0.15226151      -0.39232814      -0.24444106       0.05081729       0.00361079
H        0.44351946       6.81937856       9.33672928       0.07168244      -0.37921033       0.55953379       0.06298612      -0.20780718       0.03668817
H       14.13526149       8.41323060       6.95652706       0.05908258       0.22607512       0.52859331      -0.19536036       0.03803624      -0.19860328
H        4.53710704       1.71349818       7.62771914       0.01972374      -0.39022009      -0.93659919      -0.09500411       0.18256402      -0.28556365
H        8.74103074      12.97769955       6.35212340       0.17648112      -0.42952199      -0.15309504       0.06976560      -0.13724299       0.16738765
H       -0.02987202       7.28380666       7.69186149       0.14341456      -0.13393116      -0.14039593       0.05466712       0.18353891       0.07185645
H       14.37855420       8.20024398       5.32152055       0.68772621      -0.15290398       0.32718925       0.12364233      -0.01453877       0.00499275
H        4.26208908       1.77831109       9.21756277       0.31189483      -0.07992387       0.34555207       0.07878239      -0.09929780       0.04886166
H       10.03220423      13.65181712       5.45760065      -0.14099731      -0.52454215       0.46501536      -0.10899382       0.00445044      -0.01250810
H       37.28742946       8.78824555       9.50411921      -0.74127805       0.19369944      -0.14236845       0.05112156       0.10947239      -0.03196805
H       15.34964567       7.21160772       6.54436172      -0.08974798       0.22662085      -0.41854967      -0.09553700      -0.03241998       0.08959834
C        3.72642618       3.56279201       8.22781095      -0.46902460      -1.05883906       0.77797416      -0.44977797      -0.36976749      -0.21152258
C       10.55222336      11.67175399       6.22081209      -1.58122523      -1.11452198       0.66286326      -0.26713055      -0.23354821      -0.33203160
C        1.09198735       8.78236016       8.87983636      -0.22087450       0.09839709      -0.92967214      -0.63084150      -0.47958155       0.54033736
C       13.24579995       6.66067717       6.23632197      -0.55744093       0.02896413      -0.62140358       0.12416399      -0.34612794      -0.05568601
Pb      36.76372497       4.44112474       6.20576270      -0.04748966       0.10345296       0.08581932      -1.39850001      -0.10104378      -3.80079775
Pb      15.85997010      11.75538030       8.60889339      -0.24008562      -0.09781205       0.26013910      -3.48435804      -1.23015565       1.98037058
Pb       6.10889446       9.53056210       6.20461735      -0.12386139       0.12404900      -0.16610245       1.59550430       1.88962328      -2.50362847
Pb       8.30097543       5.90514304       8.56781944      -0.14979728      -0.47024856      -0.32299968       1.10491738      -1.48298899       1.41735253
N        4.61070955       2.36139477       8.41072343      -1.33175868       0.22203929       0.52494291      -0.11895749      -0.13720861      -0.13064698
N        9.80235237      13.00513486       6.27912874       0.80475806       0.36482933       0.09282934      -0.38484599      -0.31534307       0.00793510
N        0.07925395       7.66293186       8.73539881       0.86532912       0.19775102       0.13225082      -0.67060822       0.81482874      -0.14039364
N       14.40354273       7.67488066       6.25307779      -1.01599436      -0.44196624      -0.10830753       0.03376125       0.37631273       0.54414392
I       16.46057786       5.94496309      13.42795326      -0.07915521      -0.03240010       0.11377578      -0.18228441       0.03200350      -1.10602250
I       17.09400675       9.67971738      11.16517786      -0.29907138       0.29438014      -0.11084498      -2.19983395       0.70600670       0.30413974
I        7.28184911      11.24424535      13.44392910      -0.00227122       0.08956789      -0.13613813       0.95173359       0.91643455       0.46277752
I        6.60571198       4.07004834      10.69701977       0.22696112       0.09662285       0.25396802      -0.98854933       1.61998374       1.06436732
I       14.89763741       2.42320709      11.39234366      -0.05399163      -0.12100910      -0.23376230       1.09778110      -0.02358450      -2.01536788
I       -0.26061321      12.94693114      13.39067518      -0.36915340      -0.13555787       0.02197021       0.98142733      -0.48672026       0.38396423
I        9.15910028       7.72696918      10.86156227       0.09538378       0.18134242      -0.03912878       0.32339440       1.20050687       1.31877048
I        5.02240239       7.56188626      13.44025922       0.07599028      -0.06963327      -0.04774125       0.53420001      -1.31140497      -0.84954954
I        1.42853560       5.33007640      11.07382805      -0.11712920       0.02793145      -0.15923368      -0.56637559       1.41998537       1.64351859
I       12.83338758      10.06923063      13.73666142       0.36278989      -0.06001313      -0.02036488      -1.28684332      -0.94452751      -0.13873392
I        3.41010170      11.02577213      10.85109824       0.32180951       0.02243571       0.00641093      -0.36763086      -0.50705515       2.80600067
I       10.60902621       4.11685043      13.45238390       0.22247435       0.18591989       0.00021480      -1.80331860       1.83026677       0.65810390
H        3.90119106       4.33600791      12.85273003      -0.03065169      -0.02100036      -0.03317400      -0.03637807      -0.04507568       0.11460609
H        9.68448183      11.19190797      11.75407123       0.04787388      -0.13922948       0.29838467      -0.04762295       0.10431776      -0.10581981
H        1.85770922       8.84134088      13.80132256      -0.10601271       0.32141168      -0.32090935      -0.26867542      -0.00028349       0.00383231
H       13.81355002       5.88709280      12.20088133      -0.03300657       0.02059494       0.46676495      -0.00687104       0.13204582      -0.10458998
H        2.46131248       3.31748460      13.34256903      -0.29671747      -0.33012476      -0.04029640       0.13233743       0.05661179      -0.04537252
H       10.42486975      11.46270845       9.98179064      -0.25708271       0.15669117       0.13849854       0.00369905       0.06880710       0.06019133
H        0.69357981       9.67603554      12.61987438      -0.05667786      -0.39422940      -0.62086311       0.18804106      -0.26102194      -0.08382828
H       12.14816497       6.67327658      11.69324566       0.41854848      -0.08030461       0.01605703       0.32773644       0.00394698       0.15937795
H        3.59525706       3.96460819      14.62316362       0.38759220      -0.52472367      -0.13411448      -0.11968898       0.17109897       0.14113397
H       11.39049849      12.10042674      11.48196579       0.10774868       0.27376932       0.11090265       0.07632707      -0.12005474      -0.11464576
H        0.28611521       9.62425409      14.31816316      -0.11722564      -0.02615572       0.48922242       0.06270476       0.01660109       0.00885826
H       13.39450556       6.03433648      10.44355674      -0.38265622       0.26983105       0.44109456      -0.01698352      -0.01003167       0.05474837
H        4.03499652       1.53155774      14.09784390       0.24308616      -0.23006752       0.05285977      -0.05127419       0.01353211       0.03514375
H        9.86478276      13.78629636      10.08936994       0.33157078      -0.13372710      -0.14285867      -0.05002117       0.13605960      -0.00460436
H        0.24992533       7.11719297      14.21190980       0.28725406      -0.12144065      -0.02280631      -0.08478293       0.11529610      -0.04616737
H       13.78569881       8.47954307      12.09494944       0.24013102      -0.02244737       0.05525803      -0.14368263      -0.00294230      -0.06951954
H        5.37752286       2.37974820      13.43751370      -0.78629507      -0.08761669       0.14754234       0.01319697      -0.11476315      -0.10975586
H        9.78491204      13.87672124      11.71309715      -0.51202453      -0.52108506       0.02827542      -0.05178004      -0.01541376      -0.17030086
H        0.53648426       7.16456933      12.54608556       0.11456736      -0.52990371      -0.27033671       0.28015737       0.04371362       0.14417731
H       13.65405722       8.40334944      10.43289680      -0.19044958       0.03129206      -0.19084213      -0.03064438      -0.01029166      -0.06955251
H        4.07731449       1.80572997      12.41404205       0.19961815       0.14986498       0.52570944       0.09439907       0.03913152      -0.09042770
H        8.53166790      13.13454735      10.76818644      -0.97142720      -0.50705213       0.43934849      -0.03409439       0.19758471      -0.03122241
H       37.24178517       8.48156473      13.54648587      -0.18496713       0.30216218      -0.13588126       0.07619029       0.04950815      -0.08056547
H       14.96783604       7.67467149      11.14889877       0.41419352       0.23799769       0.27496565       0.02299776      -0.04805918       0.03244695
C        3.52406040       3.54371395      13.57424350       0.73767427       0.21437528      -0.23956074       0.37197874       0.20125470       0.21403619
C       10.31188431      11.90711324      11.05048120      -0.30716929       0.01316769      -0.47655821      -0.02245539      -0.16529505       0.09531413
C        0.76896877       9.03559863      13.50074487       0.93945383       0.34757925       0.84118713       0.02911687       0.01319706       0.00089995
C       13.26642626       6.54403469      11.44006121      -0.56250199      -0.79021848      -1.28859081       0.23674204      -0.39342015      -0.43255316
Pb      36.89863696       4.37085668      11.22266232       0.02572440       0.21238341       0.17993339       1.07112527       0.81467235      -0.66757482
Pb      15.66254574      11.55755045      13.54794766       0.04382203       0.06590542       0.09446395      -0.16824221      -0.52903513      -0.07114522
Pb       6.22488116       9.36690519      11.03013285      -0.41636579       0.36051122      -0.03926462       2.81705273       1.64660063      -1.46065062
Pb       7.99724970       5.82048982      13.37977313      -0.25428791      -0.20718260       0.02632085       0.18298874      -0.89285890      -0.85366408
N        4.32637281       2.24793373      13.37358511      -0.28555388       0.62295641      -0.33648240      -0.22404792      -0.35967484       0.36426782
N        9.54741008      13.20690328      10.91737502       1.51937483       0.62302941      -0.29535966      -0.29908787       0.77690508      -0.51418768
N        0.12554913       7.70339652      13.35291862      -0.73282113       0.24624345      -0.05396663       0.50194139      -0.28415803       0.14835593
N       13.95672097       7.84741392      11.27930781       0.19150729      -0.01876997       0.21774838      -0.17785422       0.13753572      -0.17063225
I       16.21282233       5.62608905      18.42264996       0.00071091       0.15899723      -0.02853664      -0.72229782      -2.45478945      -0.59996191
I       16.98562050       9.94608012      16.23978081       0.08591014      -0.14668939      -0.08822374      -1.05992444      -1.02452501       2.73946278
I        7.12025520      11.45902387      18.28701788       0.13634362      -0.16693622       0.08224442      -0.28447386      -0.12294071       1.01586178
I        6.93378020       3.85171616      15.51481484       0.05372013       0.18994787       0.38552728       0.28431423       0.99785407      -0.24546942
I       14.50118813       2.25604230      15.92585123       0.32571339       0.00714861      -0.05899038       0.74297035       0.06382113      -0.86177940
I       37.65372948      13.82122279      18.57726536       0.11752035      -0.21751981      -0.10434962      -1.16877198       0.01053037      -0.10388975
I        8.98331427       7.74366535      15.74579278       0.07290170       0.09674261      -0.02017534       0.20994093      -0.44029219       2.36469608
I        5.12833510       7.41596234      18.15155103       0.16121130      -0.10666370       0.18100856       0.38790996      -0.69541902       1.82305524
I        1.03552834       5.47441036      15.72412439      -0.10355562      -0.02916230       0.26831142       0.12517071       0.99711845      -1.08546297
I       13.13673982       9.84778896      18.45869575      -0.08059968       0.29310768      -0.17077580       1.38957237       0.48298227       0.68084702
I        3.21571263      10.99348870      15.84083465       0.18033637       0.02650589       0.06632105       1.27462730      -3.18482558      -0.60129467
I       11.02540996       4.13821104      18.32034511      -0.29603391       0.33093325      -0.05028116      -1.90962693      -1.26839290      -0.58174271
H        2.57305524       3.27130818      17.78785593       0.04454574      -0.44867551       0.08369762       0.10980071      -0.08174838      -0.03879591
H       10.22358394      11.03390138      16.88404416      -0.14359026       0.66374948      -1.07781262      -0.02145459      -0.09075245       0.15559359
H        0.81183118       9.41154511      17.72841769       0.37057039      -0.04616278       0.93481288      -0.04468550      -0.18176312      -0.02641674
H       13.31341298       5.97723893      15.10053915      -0.07927876      -0.08045482      -0.03893708      -0.09626095       0.05101532      -0.03703474
H        3.69260766       4.09714862      18.88520839       0.13301611       0.54728153       0.29267493      -0.06965591      -0.02476203      -0.08263760
H       10.16257481      11.05086648      15.04206837       0.15988926       0.66268697       0.76246232       0.03413444      -0.05223006       0.12063097
H        1.06256817       9.32640261       0.12238646      -0.17879126      -0.02389329      -0.30276326      -0.05229616       0.21878312      -0.11907513
H       13.06837433       5.94923616      16.86251118       0.46452169       0.17547084       0.42138414      -0.07299338      -0.01414670       0.00655675
H        3.97363390       4.04922363      17.11083240       0.51033386       1.13329163      -1.18973117      -0.24836226       0.03652175       0.03842410
H       11.53574908      11.80325295      16.01608751       0.60815010       0.50141567      -0.38319650       0.07419840       0.05847006      -0.10265145
H        2.02299652       8.32487567      18.58791851      -0.19012129      -0.06464349      -0.19947538      -0.12897052       0.04727217      -0.00703125
H       12.16862901       7.19482072      15.86538299       0.44166775       0.00648515      -0.12272062       0.02726961      -0.03615161       0.03454437
H        5.49463162       2.60571062      18.30822067       0.62196076      -0.08701255       0.07484592       0.03177510      -0.13230604      -0.12035609
H       10.02743085      13.53741573      16.86759489       0.00194670      -0.15226151      -0.39232814      -0.24444106       0.05081729       0.00361079
H        0.35347107       6.78706497      19.07099593       0.07168244      -0.37921033       0.55953379       0.06298612      -0.20780718       0.03668817
H       14.04521310       8.38091701      16.69079371       0.05908258       0.22607512       0.52859331      -0.19536036       0.03803624      -0.19860328
H        4.44705865       1.68118459      17.36198579       0.01972374      -0.39022009      -0.93659919      -0.09500411       0.18256402      -0.28556365
H        8.65098235      12.94538596      16.08639005       0.17648112      -0.42952199      -0.15309504       0.06976560      -0.13724299       0.16738765
H       -0.11992041       7.25149307      17.42612814       0.14341456      -0.13393116      -0.14039593       0.05466712       0.18353891       0.07185645
H       14.28850581       8.16793039      15.05578720       0.68772621      -0.15290398       0.32718925       0.12364233      -0.01453877       0.00499275
H        4.17204069       1.74599750      18.95182942       0.31189483      -0.07992387       0.34555207       0.07878239      -0.09929780       0.04886166
H        9.94215584      13.61950353      15.19186730      -0.14099731      -0.52454215       0.46501536      -0.10899382       0.00445044      -0.01250810
H       37.19738107       8.75593197      19.23838586      -0.74127805       0.19369944      -0.14236845       0.05112156       0.10947239      -0.03196805
H       15.25959728       7.17929413      16.27862837      -0.08974798       0.22662085      -0.41854967      -0.09553700      -0.03241998       0.08959834
C        3.63637779       3.53047842      17.96207760      -0.46902460      -1.05883906       0.77797416      -0.44977797      -0.36976749      -0.21152258
C       10.46217497      11.63944040      15.95507874      -1.58122523      -1.11452198       0.66286326      -0.26713055      -0.23354821      -0.33203160
C        1.00193896       8.75004657      18.61410301      -0.22087450       0.09839709      -0.92967214      -0.63084150      -0.47958155       0.54033736
C       13.15575156       6.62836358      15.97058862      -0.55744093       0.02896413      -0.62140358       0.12416399      -0.34612794      -0.05568601
Pb      36.67367658       4.40881116      15.94002935      -0.04748966       0.10345296       0.08581932      -1.39850001      -0.10104378      -3.80079775
Pb      15.76992171      11.72306671      18.34316004      -0.24008562      -0.09781205       0.26013910      -3.48435804      -1.23015565       1.98037058
Pb       6.01884607       9.49824851      15.93888400      -0.12386139       0.12404900      -0.16610245       1.59550430       1.88962328      -2.50362847
Pb       8.21092704       5.87282945      18.30208609      -0.14979728      -0.47024856      -0.32299968       1.10491738      -1.48298899       1.41735253
N        4.52066116       2.32908118      18.14499008      -1.33175868       0.22203929       0.52494291      -0.11895749      -0.13720861      -0.13064698
N        9.71230398      12.97282127      16.01339539       0.80475806       0.36482933       0.09282934      -0.38484599      -0.31534307       0.00793510