768
Lattice="25.625769195560288 0.1442251890105203 -0.06288156074118129 -0.08544278206367628 25.555723663810763 -0.05823012908242495 0.07213310111533067 -0.1299461261962401 25.66616038795785" Properties=species:S:1:pos:R:3:forces:R:3:momenta:R:3 energy=-3307.8139141623824 stress="0.0 0.0 0.0 0.0 0.0 0.0 0.0 0.0 0.0" pbc="T T T"
I        6.49401206       0.88539047       2.24460607      -0.35372712      -0.06565220       0.31463008      -2.15489261      -2.31165522      -0.03512585
I        6.15412458      12.53985035       8.83895477      -0.05277358      -0.05921299      -0.19102410       1.96291788      -0.52022729       0.49136727
I        5.98486856       9.84564266       4.52222895       0.10461480       0.06781782       0.22296090      -0.13249522       0.24759415      -3.25573361
I        6.58191880       3.42290206       5.55111472      -0.15973352       0.04511096      -0.05000787       1.31049884       3.04119510      -0.60482354
I        0.51072496      12.53491113       9.28179443      -0.01380805      -0.08217613      -0.40355254      -5.47508307      -1.93780302       4.19563633
I       12.11661824       0.74562340       2.80637130      -0.20437039      -0.10352670      -0.48622450      -4.01578206      -3.22306867      -1.37146606
I       11.75775579       3.14925513       6.07803731       0.08640708      -0.03486520       0.06545219       1.95690218       7.06779783       2.25656652
I        0.46640148       9.78019564       5.42310167       0.04603105      -0.29677839      -0.09429890      -0.82590604       1.03123832       0.43452831
I        9.57679108      13.41040923      11.93706076      -0.09123504       0.04102476      -0.16631840      -0.28155932       2.68325040       1.18731624
I        3.05361513       6.25144257       6.04371953       0.00030275       0.00516037       0.06067738      -0.92763356       0.62952832       3.27453385
I        2.71232399      -0.08653390       5.56089869       0.21211065       0.36634277      -0.20775113      -1.16302557      -1.17965476      -1.00285341
I        9.48946223      12.73243442       5.34809387      -0.09535482       0.01490274       0.19305960       0.06053067       5.24846479      -2.87667270
H        3.88775141       2.14151572       1.63657842      -0.81117227       0.24989969      -0.26520875       0.30579481      -0.17229846      -0.34188567
H        8.49134926       4.10644819       2.30189846      -1.89624360       0.85363892      -0.66783240      -0.10392933       0.08264960      -0.13993168
H        8.70968386       9.39496281       2.25353381       0.40423074       0.44639681       0.17016083       0.09064666      -0.05326079       0.31653682
H        2.49630981       3.18290189       7.12868773       1.15258703       0.12663006       0.62318615       0.06785138      -0.04435633      -0.17872925
H        2.45642929       9.09967276       8.12385068      -1.05932817      -0.23246419       0.27128734       0.43096097      -0.20953322      -0.04506681
H       10.15916997       4.23239619       2.24961986       0.67968084       0.10237060      -0.12142807      -0.23722279      -0.19244745      -0.03133720
H        8.44189859       2.60387194       7.37193148       0.31448376       0.14695506       0.52399464      -0.14551054       0.05655883       0.24986613
H        4.36620397       3.48633814       7.56392414      -0.61484607      -0.32714587       0.16427279       0.20897110      -0.47607780       0.01678068
H        2.87463299       3.65685941       1.30044639      -0.18241665      -0.00140763       0.77706989       0.10347611      -0.10787190      -0.29102837
H        9.43609196       2.79542062       1.46615945      -0.24231192      -0.44380256      -0.35985967      -0.04995686       0.08451154       0.00842810
H        9.64297297      10.07996629       3.61555176      -0.21104496       0.52335592       0.76589160      -0.21797820      -0.12058431      -0.39073500
H        3.18575611       2.07222394       8.48375138       0.24062871       1.70514353      -1.04898327       0.11434456       0.25268738       0.21222141
H        3.52199022       2.22948106       4.09550658       0.17899189       0.16798385       0.10453565       0.15201593      -0.00547664       0.04734619
H        9.83622859       8.52449717       9.39276331      -0.07816273      -0.99754360       0.78694455       0.16325276      -0.03241589       0.10056048
H       10.44574266      11.86279090       2.03473595      -0.22609410       0.05381852       0.07280386      -0.17264712      -0.20324071       0.34607969
H        2.28491253      10.57740496       3.62224303       0.75810472      -0.35225820      -0.48233070       0.15123271      -0.24360170       0.11275334
H        2.67444591       3.87563699       4.01655440       0.79906363      -1.23633684      -0.37185227      -0.22886949       0.14278602      -0.32124493
H        8.73318807       9.42700359      10.57617300       1.18030828      -0.02272521      -0.72778110      -0.35508306      -0.09526620       0.11496119
H        8.74999838      11.81333943       2.26370990      -0.43253049       0.77302085       0.05035501       0.12510718      -0.27368819      -0.29062313
H        3.07770897      11.50789125       2.44619751      -0.37863104       0.37339099      -0.86735084      -0.14843507      -0.00686145       0.09916982
H        4.26322596       3.70208142       3.50749317       0.90860852      -0.04936573       0.25901735      -0.06412228       0.17406265      -0.12396555
H        9.51412693       3.53531092       4.29445589      -0.24982898       0.54273778       1.13308798       0.06919672      -0.02301504       0.08228500
H        9.40432599      11.21915929       0.87121186      -0.01421122      -0.02136151      -0.89040621       0.33525416       0.03344068      -0.46614021
H        4.00805147      10.60710698       3.43015579      -0.15886927      -0.04138282       0.53307048      -0.02238506       0.05912953       0.18651593
C        3.44715404       9.51444921       8.37177499       0.38450435       1.36732153       0.67681364       0.71062931       1.25257017       0.36916449
C        9.34295833       3.50968624       2.28730370       1.32865490       0.06609721       0.41128793      -0.42330980      -0.69821655       0.62721065
C        9.13666883       3.10800111       8.39203731      -1.74272883      -0.68179220      -0.47807518       0.46043403       0.94259672       0.85840792
C        3.28464852       3.18469321       7.98842345      -1.09266420      -1.39621239       0.15090179      -0.16801602      -0.25549916       1.03340297
Pb       6.28888265       7.11871829       5.62710018       0.47899321      -0.63483476      -0.18503131      -0.97193824       1.64284652       4.89398030
Pb       6.41962206      13.06593273       5.58362121       0.22198085       0.13534933       0.02094358      -4.74430024      -2.11965506      -2.29097409
Pb       0.06051726      13.29424162      12.21710459      -0.36296417      -0.24113362       0.00795176      -1.80719305      -3.50397379       0.44693647
Pb       0.06496289      13.04684576       5.86003183      -0.16443572       0.27129034       0.36031503       0.12910375       1.86341889      -5.44094952
N        3.41468326       3.13348759       3.50417537      -2.04226341       1.78240552      -0.18794333       0.43792953       1.97675370       0.24558990
N        9.65058122       9.48883631       9.91476869      -0.96734020       0.26923572      -1.64411762       0.02572378       0.48998624      -0.20958215
N        9.55987995      11.31166653       1.87544767       0.70778320      -0.62767242       1.02221232      -0.74136677      -0.51629190      -0.19357931
N        3.08989435      10.59706236       2.91781918      -0.03322912      -1.02548273       0.71089496      -0.25259906      -0.35119856       0.45760452
I        6.42374791       7.11098379       8.73850306       0.22576012       0.12879284       0.23636475       0.59821686      -0.65068362      -2.94642302
I        5.79717076       6.26721140       2.58704098      -0.21193018      -0.22033565      -0.22159900       0.41343777      -1.64362772      -2.65864224
I        5.91306530       3.76334414      11.21404487      -0.05692383      -0.25011516      -0.06206658       1.24301076       0.97780780       0.24073075
I        7.17608237       9.62042830      25.31178946      -0.33007945       0.38671745       0.00717794       1.38012237      -2.45776349       0.90619153
I        0.59968872       5.64004285       2.60404155       0.04819041       0.16915416       0.20001084       5.32044791      -1.48409728      -0.57154263
I       12.13582339       6.67206507       8.97540962       0.08778727       0.17614937       0.01889482       0.38412953       0.39677562      -2.03350806
I       12.90344964       9.69566777      25.27136366      -0.30520070      -0.09917441       0.00174329      -0.76226541       0.74651911      -0.38530194
I        0.30453346       3.53827920      11.27210063      -0.14076230       0.12969967       0.09056618      -1.86613043      -0.00891128       0.81864972
I        9.57479482       6.73834126       5.09337335      -0.34074125      -0.20814939       0.01727762      -0.97823492      -3.01338088       0.12534006
I        3.31221501      12.47335194      25.11470101       0.23173413      -0.08181632       0.43475592       2.51390353       1.31525089       2.86687767
I        3.07657488       6.83543984      12.14793939      -0.12970321       0.49700505      -0.41999349      -0.18404112       0.35993236      -0.86846728
I        9.59232897       6.22134993      25.47813340       0.11127222       0.02867443      -0.21859578      -2.56606735      -2.07254963      -1.54110226
H        4.17954291       8.64330270       8.59604190       0.53870877       0.06335252      -0.29002342      -0.08497104       0.28835473       0.09439600
H        8.69516536       9.91813189       8.06113757       1.10281964       0.55245086       0.66746440      -0.13244205      -0.23715305      -0.29740973
H        8.57077510       2.77640963       9.53593748       0.14981902       0.47630765      -0.10261673      -0.10624007      -0.25525044      -0.27387976
H        3.58793139       8.38629800       2.42752898      -0.26826715       0.46589311       0.39274964      -0.11545172       0.00239855       0.29299616
H        2.07335702       2.19730282       2.03993703      -0.22896409      -0.04069813      -0.05196304      -0.34775673      -0.03315662      -0.03750359
H        9.15290287      11.52356495       9.02568725       0.62078820      -1.75367620      -0.49928682      -0.10728633      -0.00828510      -0.06671213
H       10.47070710       9.41147598       2.29310090       0.71698674      -0.09027695      -0.61599515       0.09208311      -0.30184321      -0.12186114
H        2.15936420       9.34071700       1.49613437       0.39648756      -0.25348140       0.01608337       0.09737358       0.07978778      -0.25535547
H        3.81722167      10.27762893       7.57366049       0.06379985      -0.63420415      -0.18925990      -0.10171917       0.16201262      -0.11768091
H       10.50813524      10.34493433       8.01110715      -0.79017517       0.85094693       1.07340309       0.28738499      -0.26369421      -0.01929527
H       10.18847844       2.77631027       8.25203589       0.75030848      -0.48480335       0.01530036       0.06154139       0.03321279      -0.10403799
H        4.01719046       9.72867382       1.12439214      -1.20680278      -0.02793872       0.46703791       0.26803997       0.11360678      -0.27475719
H        2.57146789      11.02821103       9.75544140       0.26000322      -0.34369074      -0.71205873      -0.12386208       0.01764596       0.29610512
H       10.24844571       2.18674412       3.59762286      -0.89768306      -0.02614326       0.29229410       0.35307910       0.26341337       0.20299772
H        8.76074727       5.32769410       8.57915577      -2.64758032       1.21448071       0.91897647       0.25871064       0.00132889       0.06732592
H        2.66213610       5.24012384       8.56134985       0.49848610      -0.13160298       0.05030473       0.02396280       0.15822854       0.06825104
H        4.21715469      10.98492908       9.62366319       0.87523123       0.70948445      -0.08341304      -0.12920440      -0.00938168      -0.51492769
H        8.47634664       2.33328650       3.69854993      -0.22057932      -0.60858232       0.68775833      -0.04646829      -0.02969662      -0.04164287
H        9.26001737       4.82010152       7.10201887      -0.10139917       0.01734929      -0.44677627      -0.05019996      -0.05169699       0.17880028
H        3.89712579       4.42148411       9.56870807      -0.46744187       0.25580321      -0.31140763      -0.24047913      -0.12459968      -0.02009750
H        3.45317587       9.88545207      10.61129719      -0.17440573       0.41115578      -1.70594809       0.08428600      -0.22677504      -0.19670934
H       10.49229240       9.67396684      10.46676020       0.38143629       0.36195005       0.81071366       0.01250541       0.24804428       0.22606660
H       10.35083819       4.83337519       8.44294081       0.91579020       1.29036940       0.50831812       0.31873013      -0.02831839       0.10921724
H        2.22322934       4.12936986       9.85354163       0.31926291      -0.74067769      -0.63291937       0.05939102      -0.14243157      -0.09095660
C        2.99261130       2.78406168       2.00097821       1.43260646      -0.60786806      -0.17301190      -0.61422780       0.61286702      -1.27923289
C        9.54798425      10.41897401       8.66515258      -1.40632284       0.54879067      -0.25696850      -0.02136448      -0.51140297       0.10107228
C        9.60358529       9.99069707       2.54913796      -0.73203825      -1.08923902      -0.39205124       0.30349155       0.54794580       1.12226183
C        3.19064296       9.40861324       1.94027546       0.69501151       0.85427710      -1.03172147       0.23080167       0.00469050       0.14264694
Pb       6.31482368      13.18679512      11.84835967       0.06667571      -0.00922022       0.19970803      -1.81942245      -0.13452822       2.76670952
Pb       6.37658941       6.72341708      12.07002783       0.02005340      -0.02659425       0.07955698       0.51349917      -2.39119912      -1.06102656
Pb       0.12384810       6.81086973       5.58806011      -0.01291531      -0.19319364      -0.20897998      -1.46750377       1.74362095      -2.12431610
Pb      -0.23679524       6.62416375      12.04454272       0.34183077       0.12916677       0.01876608      -0.74125044      -1.66920402       2.03269055
N        3.40176646      10.38188320       9.61968422      -1.01035016      -1.82454682       2.27500830      -0.48978867      -0.15002812      -1.00539985
N        9.37678097       2.81436331       3.60673046       1.47862888      -0.16012546      -1.36234281       0.51600199      -1.75607531      -0.02189862
N        9.33487132       4.63242236       8.14570260       2.09961350      -1.94674095      -0.71603885       0.18335924      -0.51657045       0.28016097
N        2.97711273       4.29418226       9.05256051       0.03758395       0.47226507       1.15163407       0.35614722      -0.85576193       0.66730183
I        6.46506524       1.35731884      15.25681719      -0.20798394      -0.34921336       0.04150382      -1.21756562       3.87569635       0.60043222
I        5.61791123      12.95968494      21.46563966       0.13290408      -0.27438741       0.39234399      -4.82200770      -1.72332015      -1.28642419
I        5.92503841       9.67021360      17.78733091       0.27004246       0.35329758       0.18330144       0.12430232       0.26217413      -1.06721749
I        6.44461511       3.32512617      18.99190182       0.05207993      -0.10531665       0.05618739      -4.41950217      -0.52772963      -5.25144443
I        0.76758437      12.34892312      22.05060213      -0.34638516       0.11432594       0.04734031      -3.83035554       0.60691619      -0.61266434
I       12.10167285       0.58545061      15.47757225      -0.15691749       0.26506681      -0.42444801       2.07180406      -2.16358530       2.44809824
I       12.40381315       3.37303993      18.91283378      -0.10128534       0.33147086       0.04930593      -1.35579075       0.59966026       0.83996277
I        0.69045906       9.93070856      18.20635254      -0.24978089      -0.26976980      -0.12934606       2.02343701       0.11271386       0.65889798
I        9.74839953      12.82792779      24.28224724      -0.05103330       0.13219024       0.01546438      -4.00680147      -3.49711975      -0.16424870
I        3.16945513       6.26332908      18.50039694      -0.02729686      -0.05910523       0.22817799       0.70571774      -0.39218074       1.09093603
I        2.82102682       1.18335350      17.88891870       0.35335942      -0.17579728       0.03430395       3.74808026      -1.19934651      -1.91164312
I        9.85139199      13.28775533      18.83461767      -0.54532283      -0.17166308      -0.11700107       3.75566364       1.33936993       2.26353070
H        3.66096900       2.84208358      14.09200020       0.77280353      -0.52889458      -0.43219433       0.08663955       0.31061407      -0.04909407
H        8.46184905       4.04593626      14.76880877       1.20397004       0.02671722      -0.40473294       0.03738830       0.01082592       0.19975789
H        8.90937982       9.40890405      15.46596788       0.41518124       0.49906617      -0.04263475      -0.03406556       0.18570453       0.14023367
H        1.74753538       3.41053798      20.49677215      -1.58431008      -0.18564719      -0.19218914      -0.25119654      -0.21754217       0.13562322
H        2.64771890       8.15599857      21.77110287       0.57390620       0.73147434      -0.62310789      -0.18902786      -0.13196492      -0.08318156
H       10.35531121       4.19653473      15.13826848      -0.22038668      -0.03853960      -0.38248009      -0.19596611      -0.04169442       0.19509591
H        7.96174163       3.34027086      21.64809039       1.45210056       1.19185887       0.58742961      -0.07012835      -0.31711738       0.06091772
H        3.43206984       3.23487407      20.61205757       0.96599403       0.18132306      -0.74878110       0.07871329       0.32387800      -0.25100426
H        2.42595625       4.00038066      13.31175065       0.26069155      -0.34778164       1.19267726       0.22998523       0.07587840      -0.12631500
H        9.56113765       2.73772373      14.22789497       0.34616940      -0.08660504      -0.79983707      -0.20410472       0.00007322      -0.20372935
H        9.48491217      10.34663659      16.89263238       0.39236880       0.61799721      -0.11714685      -0.11221869       0.28876817      -0.13186380
H        2.61242012       2.57281821      21.86607618      -0.71671354      -2.09983487       1.45806612       0.03735274       0.15890141       0.03336536
H        2.75517527       3.28140214      16.27895879       0.01407509      -0.22040901       0.13382581      -0.27147568      -0.30804713       0.02855665
H        9.79543547       8.07827965      22.95362169      -0.17696172       0.99344658       0.20197669      -0.09824292      -0.14369671      -0.16802429
H       10.21731758      12.15362022      15.03753373       1.90027751       1.21040180       0.91800665       0.03011081       0.03809100      -0.08279794
H        2.26775091      10.45427206      16.22204523      -0.14165882       0.66045736       1.03035679      -0.02856047       0.25652492       0.15714937
H        2.06999778       4.71155837      15.67966028      -0.28226522       0.19112060      -0.11462619      -0.04714133       0.22800538       0.35677395
H        8.95166124       9.26983038      23.77499405      -1.31750889       0.35607329       0.66653426      -0.28235032      -0.02537755      -0.12735576
H        8.53664932      11.98713830      15.09448905       0.97707567      -0.63026774       0.33198959      -0.02327478       0.31689011      -0.08505895
H        3.40254171      11.55429630      15.36194466      -0.03289875      -0.20067566       0.16420462       0.10258481      -0.20101155      -0.23349626
H        3.79013459       4.44582530      15.57111582      -1.17095281      -0.41231596       0.09232997      -0.09690354       0.43858699       0.23532493
H        9.42211251       3.47232275      17.00165495      -0.22785604       1.50539633       0.99341660       0.58081817      -0.25386554       0.40796560
H        9.40250814      11.28652296      13.95284853       0.34649523      -0.55762100      -0.89322116      -0.29041088       0.24831935      -0.05933005
H        4.01490243      10.42779969      16.55667138       0.16081415       0.51595017       0.98212464      -0.28620481       0.08454803       0.14067040
C        3.15938961       9.43120018      21.32401096      -0.00394422      -2.38102302       0.70363634      -1.08566919      -1.02181456      -0.33616076
C        9.44973682       3.52608826      14.96537838      -2.01772242       0.41128836      -0.03362707      -0.86525145       1.04410007       0.09571703
C        9.07691597       3.74455155      21.80086331      -0.98136044      -1.95185003      -0.80486743      -0.58601335       0.74969957       1.02596893
C        2.54547357       3.33171778      21.19209801       2.06393089       2.09034155      -0.03933314      -0.76819299      -0.12908867      -0.01645637
Pb       6.31306741       6.50637913      18.25850109       0.02394354       0.38634882       0.02070862       2.87350556      -1.94786567       0.93961721
Pb       6.54542924      13.34725013      18.21197186      -0.17678697      -0.27457032       0.15103921       0.45802365       2.63550520      -2.43071471
Pb       0.24884113      12.87248255      25.29147717      -0.35194936       0.21546194      -0.45789145       0.87955650      -3.57609847       0.28447767
Pb      -0.10588269      12.97543492      18.85747315       0.42998133       0.32862635      -0.07748850       1.70318013      -2.02970044      -0.63559468
N        2.79802421       3.97267738      15.51050192       1.73162862       1.32912284       0.63468920       0.80688505      -0.23669247       0.03430046
N        9.71883470       9.12901588      23.12541780       0.79749624      -2.27091941      -1.33935242       0.21193347      -0.21213861       0.07872608
N        9.48933464      11.47696862      14.95344417      -3.14206729      -1.87398671       0.81715086       1.35718960      -1.31716900       0.50850956
N        3.25662840      10.60723658      15.83401440       0.13719491      -1.38180469      -1.95285140      -0.60997381      -1.08934358       0.40401571
I        6.52212452       7.01241667      21.67868203      -0.02766404      -0.00330678       0.11038918      -0.83865119       0.41898658      -0.74908335
I        5.92896246       5.60947866      15.19368254       0.11687162       0.13531384      -0.06179099       1.04447412      -1.17126670       1.28956904
I        5.35153705       3.34122762      24.59936655       0.04615522       0.00375153      -0.17578505       0.91431294       1.90892303       2.06734490
I        6.85203743      10.08420576      12.24685067       0.14475108      -0.22395712       0.05428838       3.03914655       0.74854413      -0.35273906
I        0.26568892       6.10000516      15.35878103      -0.23751701       0.07545510      -0.09027848      -2.11170053      -4.41491842       0.97030372
I       12.33028022       6.87814356      22.01894413      -0.00331588      -0.08926477      -0.47726794      -1.27373199      -0.80420172       5.36344875
I       12.20437022       9.89742272      12.40088420       0.13612914      -0.20090874      -0.03013452       2.85334570      -3.92221486       2.03011834
I        0.53742209       3.42462463      24.65272339      -0.19184399       0.25850062       0.00940148      -1.75727887      -3.20299652      -1.26926850
I        9.66207262       6.16204781      17.85718633      -0.01554262       0.15156996      -0.06439872       0.37902954       1.16546572       0.92340738
I        3.19974456      12.35376801      12.37754608       0.05831858       0.12910955       0.20468598       0.38166197       0.16846248       3.50082321
I        3.40628880       7.12119837      24.60370237      -0.58901502       0.01677909       0.03793127      -1.06688428      -3.33279307      -3.06457769
I        9.43980508       5.81112832      11.87232512       0.30809076       0.12606863      -0.04903274      -1.45216865       6.26748379       0.39048066
H        4.44557352       9.35192039      20.78648378      -0.88860800       0.93714940      -0.10850448       0.22842624      -0.07247873      -0.13001599
H        8.59740480       9.62252870      21.38386739       0.00323762      -0.33048748      -0.34097825      -0.02391972       0.11804630       0.31407402
H        9.34054831       3.81675643      22.88120204      -0.00241258       0.02078638       0.48347749       0.16028236      -0.28970386      -0.33166782
H        2.77335454       8.47594697      15.35011931       0.05361531       0.47914292      -0.77223350       0.08219349      -0.04338571       0.08812855
H        1.86406661       2.49588075      14.28657537       1.74684546       1.25574407       0.12969322       0.02550617      -0.32763998      -0.08630295
H        9.54741351      10.90293659      22.11006311       0.13555011       1.14872387      -0.22393713      -0.19717068      -0.11826604      -0.05303281
H       10.73079810       9.69791832      15.60016496      -1.40809172       1.26836431       0.62769207       0.03524004      -0.35917185       0.07363709
H        2.80587326       9.88608693      13.62096596       0.60981527      -0.62990534       0.40417067       0.05619095       0.34913772      -0.01017390
H        2.22692775      10.25939834      20.63247782       0.01717150      -0.05540206      -0.74115541       0.33837967      -0.08389630      -0.05548010
H       10.44944103       9.63327145      21.22731451       0.14309517      -0.13074379      -0.55700637      -0.11655575      -0.09719203       0.44762923
H        9.76011549       2.91880456      21.27782805      -0.26075406       0.99889722       0.04782838       0.05600220      -0.06200249       0.05471051
H        4.62216072       9.42419527      14.63125157      -0.02654295      -0.40943955       0.00815155      -0.40525411      -0.19404584       0.05648525
H        2.41507546      10.49192730      22.91845205      -0.33290668       0.45782442       0.20490154       0.08927786       0.00417671      -0.00110067
H        9.81451000       1.97142047      16.42971335      -1.08020904       0.09493046      -0.30514257       0.31683003      -0.11630160      -0.11546886
H        8.21898352       5.59358752      21.60801172       1.08563020      -0.07412710      -0.97383874       0.07141378      -0.15820926      -0.11443412
H        2.50396820       5.44195293      21.42830163      -0.26983869      -0.20762127       0.02997897      -0.13203897       0.09339854       0.13133034
H        4.10494030      10.85113918      22.49768824      -1.46143856      -0.85491982       0.33739691      -0.23880489      -0.03264271      -0.23932611
H        8.04975288       2.52259388      16.43997482       1.16059722       0.36510086      -1.01950131       0.10042197       0.04996783      -0.06271306
H        9.16701285       5.09205908      20.16220686      -0.36916632       0.53183221       1.48204056       0.03161708      -0.01225135      -0.07065264
H        3.69276720       4.74039567      22.40560405      -0.58456342      -0.60052018       0.04439045      -0.00352729       0.02818992       0.12362842
H        3.62376063       9.35253411      23.47920521       0.18579840       0.59717211      -0.97688966       0.32559833       0.06252610      -0.09258160
H       10.56933095       9.32736427      23.64453236       0.71529025       0.49184463       0.15315219      -0.03183246      -0.13095233       0.02750808
H        9.97850299       5.72784354      21.53741956      -0.81607177      -0.85640950      -0.10084798       0.07798943       0.27993747       0.11205774
H        1.99774602       4.52301230      22.87309683       0.16894560       0.31756431      -0.08016256       0.04490715      -0.05946756       0.03760019
C        2.70916524       3.32822915      14.22440121      -2.83280102      -1.41402543      -1.50067107       0.03356230       0.68447752       0.87768066
C        9.57309105       9.87032086      21.81557529      -0.12219638      -0.26317344       1.31493656       0.24922890      -0.67926213      -1.17289275
C        9.68609510      10.17208583      15.81391858       0.38624637      -0.65123620      -1.69944597      -0.11641273      -1.04244003       0.97449280
C        3.38697947       9.45807804      14.77304069      -0.80031732       0.92105610       0.00229964      -0.12655267      -0.55738031      -0.42429152
Pb       6.65872167      12.88388667      24.70597471      -0.44824102       0.06200573      -0.13875629       1.57078217      -0.77685972      -0.52285686
Pb       6.30014274       6.41080722      25.10564021       0.25433940      -0.07064397       0.02498895      -4.67555663      -0.05354032      -2.94944981
Pb       0.06301866       6.78154992      18.27483574      -0.08479486      -0.12094064       0.41713827      -3.35602403       1.95235988       0.47937694
Pb      -0.05872949       6.54306476      25.12888805       0.41214652      -0.16345011      -0.15451665      -1.01436393      -2.32322906       1.94235922
N        3.32877636      10.04295789      22.66024070       2.18486459       0.59830368       0.97102569      -0.16784598      -0.01767975       1.45458681
N        9.13256331       2.82485882      16.23847993       1.07732022      -2.16182288       1.99896443      -0.63102264      -0.15797411       0.53151052