768
Lattice="25.625769195560288 0.1442251890105203 -0.06288156074118129 -0.08544278206367628 25.555723663810763 -0.05823012908242495 0.07213310111533067 -0.1299461261962401 25.66616038795785" Properties=species:S:1:pos:R:3:forces:R:3:momenta:R:3 energy=-3331.0319399111954 stress="0.0 0.0 0.0 0.0 0.0 0.0 0.0 0.0 0.0" pbc="T T T"
I        6.86086934       0.92558190       2.57790136      -0.00036379       0.02430527       0.07625402      -0.90980630       1.33710408       2.04219820
I        6.11297705      12.15439163       8.94581753      -0.02197433       0.17118922       0.25400815       0.60995104      -3.85177595      -0.28276068
I        5.85036209      10.05316446       5.08170848       0.04883136      -0.39194645       0.06216384      -1.63993741      -0.85507712      -0.09301513
I        6.84127075       3.56153446       6.27465096       0.01345117       0.08688807      -0.02041987      -1.54518976       1.50230547      -1.50250251
I        0.42559624      12.50995567       9.00193719      -0.10051056       0.01759935      -0.09389469      -0.60452270       1.63035928      -1.09119712
I       12.27372140       1.08883922       2.67627567       0.10214406      -0.10317916      -0.05669554      -0.25421770       0.86599558      -0.84737574
I       12.40523002       3.49481298       6.51464087       0.07974862       0.08835390      -0.12786838       1.11761771      -1.26036915       0.49864610
I        0.41142149       9.79575241       5.21055320      -0.10686870       0.04763617       0.11029063       2.96309658       0.47763799       1.25079205
I        9.52136727      13.40909973      11.93143977       0.13111596      -0.06320328      -0.02517664       0.74317804      -0.17546268       0.62771277
I        3.38549138       6.21659924       6.32162593      -0.07895831      -0.09206750      -0.05147481       0.56557780       1.06046987       0.74849184
I        3.29429540       1.04706976       4.79066610      -0.12001331      -0.12607936       0.30241487      -0.74697285       0.94142378      -1.37465875
I        9.42380589      12.65896374       6.00433358       0.12479402       0.04364517       0.00587366       1.04664653       0.07817440      -1.17559432
H        3.95475440       2.84991537       1.49903650      -0.31053291       0.00373443      -0.13377410      -0.03472542       0.00047294       0.13187549
H        8.65179249       4.57865444       2.32296844       0.22605849      -0.49700259       0.10182640      -0.11383100      -0.05435615      -0.05334733
H        8.54806938       9.51062871       2.49963528       0.09755151      -0.14120695       0.12970475       0.05206542      -0.13050033      -0.20598542
H        2.02877406       2.72306728       8.21057960       0.47435922      -0.37915054       0.58061645       0.04283640      -0.07638601       0.08185985
H        2.24654759       8.77297995       8.63926525      -0.69723969      -0.40390080      -0.46162074       0.05555290      -0.04811808       0.09764398
H       10.46681993       4.36310322       2.22650853      -0.41859199      -0.13571892       0.00870822      -0.09678306       0.02262502       0.03187440
H        8.98512038       2.75639495       8.52576863      -0.28473898       0.01342283      -0.17488961       0.03273646      -0.01819287      -0.13619629
H        3.85452821       2.79511504       7.59891307      -0.66896115      -0.22430464       0.37626833      -0.03506350       0.13775453      -0.06332081
H        2.86071553       4.19328901       0.91562121       0.16732746       0.18656555       0.08204191      -0.26352774       0.23545982       0.06839353
H        9.43324269       2.95134044       1.76417523      -0.33035858       0.72194873       0.26614953      -0.07597146      -0.10296437       0.01095321
H        8.96585921      10.33084135       4.19828254      -0.07530226      -0.59859192      -0.43733552      -0.01130257      -0.06041147       0.07003160
H        3.52674181       1.94281521       9.31321994      -0.39932061      -0.16439241      -0.47902426       0.02257140      -0.18969159      -0.05684355
H        3.23433997       3.19304575       3.78158176      -0.34943325      -0.04930175       0.17305961       0.14353667       0.25074945      -0.09215481
H        9.26163673       8.48291148      10.20955391       0.19659719       0.85275152       0.55825190       0.18906310      -0.04180541      -0.06392539
H       10.47457377      11.84312798       2.77052571      -0.53685448      -0.27900750      -0.02097122      -0.10347264      -0.06393751       0.10270895
H        2.19623579      10.19644178       3.58694285      -0.05555991       0.23514096       0.03912912       0.15826100       0.02938757      -0.10983770
H        2.14886182       4.50655927       3.24338590      -0.48002348      -0.40728321       0.24792416       0.19210125       0.08106085       0.10973586
H        8.48251998       9.75513395      11.01029854       0.44784426      -0.05342960      -0.38718901      -0.19901193      -0.00510216       0.16339275
H        8.78355649      12.05039556       2.43255848       0.03968529      -0.33487651       0.06242334       0.04536062       0.04233852      -0.21402712
H        3.00849642      11.20363435       2.47526755       0.17238261       0.54423193      -0.42037159       0.00478054       0.05403207       0.01900170
H        3.78438620       4.76076313       3.12080410      -1.14824052      -1.54064667      -0.21730181      -0.06433900      -0.16675193       0.06855728
H        9.66190919       4.09432887       4.51792474       0.15782924       0.43419655       0.16718519      -0.20407550      -0.04968182       0.00155347
H        9.84480893      11.21300904       1.37801077      -0.13630437       0.03552071      -0.26022184      -0.19130217       0.00104602      -0.03328717
H        3.84311827      10.23233830       3.59236087       0.93362573       0.36312634       0.51032842       0.05792158      -0.07733370      -0.09293988
C        3.15384607       9.35733086       8.52400456       0.64813717      -1.01255567       2.18022925      -0.07453683       0.63976014      -0.28597055
C        9.49140659       3.85302722       2.42692932       0.84472793      -0.32577193      -0.40634598      -0.22188758      -0.30520549      -0.30804570
C        9.66240667       3.43009904       9.22008467      -0.26233018       0.11856833      -0.26733585      -0.55757659       0.24116949       0.47464849
C        3.14891965       2.73066842       8.55105871       0.72117549       0.95739744      -0.25857070      -0.38744937      -0.11389753       0.23066707
Pb       6.53221342       6.80186021       5.88330597      -0.05135120      -0.12391867      -0.11921475      -0.76490521       0.06110580      -1.63826302
Pb       6.23762566      13.11907709       5.58736059      -0.18760398       0.06972390       0.00011988       0.01313733      -0.20426452      -0.48077944
Pb      -0.11545156      12.86895738      12.21040826       0.03940479       0.12723587      -0.01955154      -0.07265264      -1.30424154      -1.63878184
Pb      -0.22690805      13.07609805       5.88857982       0.27302592      -0.30908470      -0.15809383      -1.36192179      -2.19952446      -1.13697045
N        3.01354303       3.95589715       3.07056124       1.95961279       1.86797491      -1.18755621       0.26547245       0.12824036       0.21117793
N        9.32713230       9.52896683      10.41020955      -1.52663905      -0.54509859      -1.73127057       0.03013326       0.25306018       0.77913716
N        9.61123081      11.34997761       2.39883481       0.77995126       0.21998691      -0.18581297      -0.06567716      -1.10540571       0.54554982
N        3.04309517      10.29330733       2.95765921      -1.26928459      -0.43988345       0.02164600      -0.47011664       0.18656184      -1.10849489
I        6.87735457       7.05388997       8.97985354      -0.13717492       0.02965712      -0.05945114      -1.68134771       2.09968463       1.30723646
I        5.92613117       5.99332065       2.48859781       0.04351234       0.15023808       0.28071336      -0.77105204      -0.87788328       0.03589229
I        6.03931187       3.60895416      11.60655334       0.00971263      -0.24337167       0.00580861      -0.42534885      -1.67376917      -0.01843652
I        6.75321298      10.03685898      25.92179056      -0.13041380      -0.08873827      -0.03980694      -0.06479496       0.51436097      -1.45369490
I        0.19582978       6.11150171       2.54136419       0.08749397      -0.06281290       0.04372284      -1.43328515       1.14219734       1.96336968
I       12.41272714       7.29003002       9.02502631      -0.09022085       0.04811387      -0.00627971      -1.39974902       1.37660610       0.85149972
I       12.16850684       9.89669291      25.57333816       0.12405913      -0.13647458       0.09892776      -1.00966253       0.80471155       1.76533160
I        0.46211475       3.37456170      11.59442516       0.12626274      -0.07350065      -0.09099791       0.64027074      -0.36622703      -1.25334920
I        9.75607020       6.80449980       5.49060689      -0.14927802      -0.00081142      -0.15453220       1.09377877      -2.73675393      -0.40352614
I        3.27267898      12.39728866      25.53908857      -0.33420985      -0.02549534       0.06423758      -1.42339882      -1.30277916       1.30294638
I        3.02132554       7.31585036      11.65099560       0.07515653      -0.16200509      -0.05872834       0.75646857      -1.63675595      -2.08325940
I        9.53853878       6.36901445      25.22704880      -0.04146333       0.00192958      -0.00263568       1.60916831       2.08863296      -0.64970992
H        4.01153928       8.62261036       8.65584341      -0.37380075       0.55181877      -0.20617244      -0.10287768       0.23293910      -0.01660623
H        8.30393331      10.02899170       8.58691437       0.35470344      -0.00068884       0.17093075       0.26389580      -0.16712690      -0.00148570
H        9.05595036       3.66524751      10.27723871       0.66004099      -0.40272601       0.51523690      -0.02221558      -0.11073363      -0.00041773
H        2.98575889       8.21630881       2.69033195       0.17311687       0.78631405      -1.14346492      -0.09560393      -0.00158054       0.08713734
H        2.12555127       2.73660996       1.59076542      -0.16363586      -0.50009266       0.01047066       0.00878456      -0.09367228       0.05534276
H        9.43576043      11.32349083       9.16076468      -0.15043776      -0.07344099       0.39102626      -0.18344561      -0.14885349      -0.03997410
H       10.38323979       9.49368942       3.19363075       0.05470958      -0.25011541      -0.13186035      -0.09724996      -0.06451079       0.05500849
H        2.22167447       9.15183935       1.30995499       0.02736416       0.15884720       0.20668512      -0.01714826      -0.00546226      -0.16831783
H        3.19773826       9.94531971       7.65151150       0.07933428       0.86350670      -1.50141794      -0.03191396       0.18858997      -0.05966107
H       10.13987946       9.87317764       8.40788756      -0.63216785      -0.15953484       0.55509243      -0.06771391      -0.08618747       0.07468528
H       10.74449902       3.00319594       9.25131822       0.22153100      -0.03194162       0.58048066       0.09140048      -0.26073963      -0.07505062
H        4.00140350       9.18557638       1.44625142       0.17980551      -0.22515681       0.03175260      -0.01567427       0.14752550      -0.00751464
H        2.36760130      11.03163470       9.67926033      -0.07407872      -0.27772254      -0.02388075      -0.00069126      -0.05389839      -0.10844436
H       10.38279720       2.69386996       3.97543341       0.21013477       0.08201007      -0.24736276       0.12818456      -0.00261921      -0.14034443
H        8.84483392       5.23698542       8.64778262      -0.44599820       0.54348222      -0.10501867       0.12366894       0.05559219      -0.12293723
H        3.32370228       4.82379533       8.70070860      -0.21218733       0.74675411      -0.64314181       0.05947518       0.06949902      -0.27027276
H        4.04189981      10.89487757       9.71266302      -0.54092010      -0.41192894      -0.08554190       0.01419687      -0.04114233      -0.04579780
H        8.74255333       2.80854855       4.12957180      -0.27812670      -0.11285719      -0.25833960      -0.10988728      -0.12709850      -0.18283566
H        9.93295006       4.57223909       7.52643835      -0.12380676       0.27657470      -0.92151063      -0.07044313      -0.11314645       0.07457478
H        4.37502031       4.06111085       9.78507201      -0.81572994      -0.29827021      -0.50687318       0.18759420       0.10276266      -0.00202996
H        3.11509725       9.77500085      10.64077064      -0.21343794       0.34300017      -0.46814917      -0.08765478       0.09399700      -0.00421480
H       10.14788155       9.74360168      10.95064632       1.03286363       0.05423109       0.53098643      -0.08109482       0.06426494       0.03214037
H       10.50790418       5.36669683       8.86039089       0.17574245      -0.04330393       0.25054151       0.06741571      -0.10749728       0.13835678
H        2.68179770       4.15426866      10.13014429       0.00293373      -0.03604649      -0.19982901       0.11077868       0.03789202       0.07266829
C        2.99280386       3.38079248       1.64981620       0.38900425       0.45671797       0.97547166      -0.33833359       0.25573133       0.04867272
C        9.29449459      10.23139314       9.05890362       0.37654273      -0.00313786      -0.15125008      -0.27789742      -0.77778540      -0.57454415
C        9.35467494      10.02578761       3.11847490      -0.16763787       1.25116511       0.76841745       0.47060387      -0.43695505      -0.74851954
C        3.06915382       9.13693330       2.01809543      -0.15673976      -1.29175160       0.69106344      -0.20325742       0.60719955      -0.26229445
Pb       6.27715435      13.04868530      11.95663920      -0.07822480       0.01364458       0.03354709       0.94421888      -1.57909697       0.13334329
Pb       6.15503954       6.72915886      12.41945368       0.14275910      -0.04627763      -0.16314508       0.69634803      -2.73111160       0.61909546
Pb       0.26173330       6.55844026       5.85807827      -0.38495321       0.09390044      -0.00126035       1.52958498      -0.86049305       0.91201946
Pb      -0.08507229       6.41719128      12.15785369       0.18810337      -0.12331243      -0.09077088       2.55594681       1.01825233      -0.06986164
N        3.14461156      10.31452619       9.71440595       1.12644590       0.28031742       0.51989792       0.30509614       0.42562093       0.14814005
N        9.58191017       3.33767634       3.82721557      -0.34106721      -0.10708943       0.36363876      -0.06386589      -0.03592264      -0.41178624
N        9.74601706       4.74358359       8.52481339       0.03183971      -0.45511977       0.29123564      -0.21721736       0.51164944      -0.26001339
N        3.37798312       4.03290055       9.32697163       0.76892028      -0.58189888       1.17500250       0.20911519      -0.20881416       0.30156112
I        6.75223849       0.40228085      15.49122616       0.04739051      -0.00428674      -0.23314893       0.30398549      -1.17918158      -1.27557027
I        5.74093491      12.13955258      21.94596994      -0.05759192      -0.03971501      -0.08666032      -0.61087672      -0.14960364       1.46843118
I        5.88608470       9.75473952      17.79256480       0.00442214      -0.16774296       0.02513127       0.29762570       0.39813080      -2.34762050
I        6.89133856       3.36020852      18.87513004       0.06434377       0.08877869       0.16748231      -0.47953643      -2.12692611      -0.63846761
I        0.06090682      12.07809350      21.82482752      -0.21521194       0.18542002       0.19594891       1.70793058       0.10386770      -0.25036169
I       12.49480457       1.03278833      15.45668828      -0.12353554      -0.16377667      -0.04149063       0.06056037       2.36324322       0.30659112
I       12.43650017       3.38030065      19.32756703      -0.01720069       0.02258402      -0.08264475       1.39288344       0.04849963       1.73120299
I       -0.05091123       9.40949501      18.09266150       0.01748421       0.14502326      -0.01058151       2.09352636       0.06483374      -0.93927656
I        9.47998224      12.98605266      24.83114468       0.11841495       0.24233820      -0.05194852      -0.93878807       1.02831669      -0.78985839
I        3.14715438       5.89298592      19.06366455       0.12947165       0.01529219      -0.15195076       0.16395206      -0.03941695       0.20907718
I        3.37479369       0.66138823      18.22110182      -0.28937082      -0.10372586      -0.05190767      -0.27851642       0.56115574       1.36539843
I        9.60587608      12.72865429      19.15771039      -0.45432860      -0.00861140      -0.16949544       2.47802448      -0.01168529       0.76619326
H        4.31127104       2.11538657      14.39252482      -0.46186411       0.09021927      -0.08554571      -0.21474647       0.09202875       0.04476007
H        8.11546981       3.71201645      14.90414582      -0.00172880       0.29436102       0.12041510      -0.35933507      -0.04982543       0.11369487
H        8.22245511       9.63254962      15.52921757       0.22054146       0.14104340      -0.14612936       0.05080337       0.09132543       0.05378098
H        2.37081834       2.45341747      20.66923378       0.15208818       0.29141306      -0.02448508      -0.16163642       0.16490959       0.19121534
H        1.72080748       8.74446293      21.21070586       0.37157223       0.35081889      -0.24574415       0.20158699      -0.09214287      -0.09587842
H        9.94582887       3.88469430      14.45792656      -0.58214517      -0.35731139       0.28653322       0.09027663       0.02011299       0.03886032
H        8.60196792       3.17333870      22.23216998      -0.18164280      -0.33245605      -0.16161160      -0.01926770       0.04526440      -0.09065789
H        4.17628517       2.49352256      20.79501487       0.09809284      -0.28139837      -0.12105623      -0.00216390       0.10110235       0.07558584
H        3.09916019       3.24166761      13.54186905       0.15080436      -0.04928966       0.75298905       0.10594382      -0.17182469      -0.16995505
H        8.96359277       2.18655294      14.58082768       0.23690719       0.13464191       0.37110793      -0.00258914      -0.02089316      -0.04152848
H        9.38868211      10.28179418      16.74861297       0.02387254       0.00765977       0.44499923      -0.10214124      -0.11660802      -0.09720649
H        3.12777601       1.78379045      22.11579614       0.34620154      -0.37240023       0.18972962      -0.02039124      -0.20039311       0.04688096
H        3.48472470       2.93310902      16.67960928       0.10349939      -0.11157847      -0.65093273      -0.12176601       0.07186927       0.07568720
H        9.01351621       8.58512465      23.25853568      -0.08706848      -1.26787902      -0.06568565      -0.20623292      -0.05165712      -0.10705959
H       10.03299642      12.06204834      15.18744208      -0.28332702      -0.17086799       0.07845909      -0.06447782       0.02972481      -0.20152127
H        1.98312795      10.19530439      16.57773981      -0.82663776      -0.42823677       0.01457225      -0.02476343      -0.02849428      -0.10383096
H        2.48431067       4.01464987      15.80985259       0.38037332      -0.16227355       0.06489828       0.01860111       0.10425180      -0.06039946
H        8.48955644       9.96089723      24.03351141      -1.02209681       0.17189688       0.65992067       0.04572575      -0.14471046       0.05891492
H        8.30574827      12.06014576      15.35448310       0.23046475       0.14274356       0.13932307      -0.01243619      -0.26009758       0.05854572
H        2.93735409      11.17751535      15.56822165      -0.09209333      -0.04668153       0.03171066      -0.21811723       0.10552088       0.09497721
H        4.10913063       4.19365529      15.72650063       1.64906954       0.85875859      -0.06739726      -0.03592954       0.08392010      -0.14270201
H        9.47192273       4.18890523      17.02919469       0.33343149      -0.09433009       0.09085081      -0.04134361      -0.14917084       0.04207141
H        9.00804948      11.38695543      14.01629760       0.10403433       0.25219623       0.26273219      -0.24539518      -0.05425527      -0.16183387
H        3.57777907      10.06622573      16.69569063       0.73063530      -0.11015458      -0.01576952      -0.01412095       0.07376751       0.20657337
C        2.67909403       9.29732428      21.28789448       0.35199625       1.27310774       0.44833471      -0.60341525       0.30224165      -0.11177722
C        9.10889282       3.24730083      15.03367730       0.15041385      -0.29924442      -0.29021882      -0.87165534       0.24848079       0.36864770
C        9.64452576       3.56832463      22.34042651       0.34559872       0.81990867      -0.44524231       0.87059346       0.89878814       0.08302571
C        3.23566042       2.54584200      21.34418419      -0.16102611       0.54371136       0.14966643       0.12662889      -0.29915508      -0.08655742
Pb       6.37890334       6.55892567      18.56845721      -0.18933584       0.07314794       0.40947582       1.83755455      -0.68992214       2.00396482
Pb       6.14385750      12.78266959      18.59115027       0.05337324       0.33564289       0.12839603      -0.82233874       1.83927446       0.37269578
Pb      -0.10714955      12.70878993      25.22187218       0.18315282       0.07234358      -0.09272169      -1.04009310      -0.89115158      -1.33541040
Pb      -0.34859370      12.63777633      18.88345772       0.19856278      -0.12288160      -0.18139376      -2.46372513      -0.93524636       0.22975988
N        3.39946437       3.47936212      15.76426410      -2.81954705      -1.01784189      -1.08069270      -0.03136759       0.07505931      -0.08425186
N        9.23242587       9.57182926      23.45487039       1.56120040       1.46985339      -0.71816442       0.01565296      -0.29903702       0.11309890
N        9.14519499      11.50361091      15.05228393      -0.17633705      -0.16748569      -0.87306992      -0.10769798       0.56910840      -0.49917905
N        2.81359857      10.18111125      15.97617723       0.21512396       0.47730780      -0.34085293      -1.12922825       0.04633947      -0.02201187
I        6.89654398       7.28031400      21.66627142       0.04947314      -0.17567465       0.24268216       0.60477311      -1.12667835       1.27822883
I        5.96719036       5.87987154      15.43013443      -0.00349154       0.11503548      -0.31882160      -0.09864461      -0.76769180      -1.79712490
I        6.05738040       3.72915384      24.40840979      -0.06560363      -0.29744604      -0.07851160       1.61463859       1.74272539      -0.34805433
I        6.65448129       9.97676783      12.78224763       0.02947548      -0.10851870       0.00401369      -0.81662311      -0.31084070      -0.41875492
I        0.52322193       5.70732342      15.25162967      -0.01546910      -0.04286344       0.24209599       1.12059831      -1.06772245       2.60926201
I       12.32794325       7.20462436      21.79983229      -0.00751938       0.10658295       0.09537143      -2.96187865      -0.65894308      -0.27298602
I       12.27061620       9.86302806      12.54308143       0.01134914      -0.01714066       0.10265550      -1.45024710       0.72251847      -0.75302674
I        0.56905765       3.25761083      24.04476321      -0.24860184       0.03566641       0.19289739      -1.78557191      -1.45580993       2.02462098
I        9.57788108       6.69659770      17.88327733      -0.00126333      -0.11325908       0.05384762      -0.82842316      -0.41599688      -1.57095567
I        3.24151659      12.35326329      12.67893275      -0.34901851       0.01112544       0.10429523       2.06211364      -0.42098763      -0.11911940
I        3.11655488       6.99330319      24.36691101      -0.02442584       0.05070994       0.05306622       0.89201168       0.38783946       0.42584851
I        9.32755330       6.55687851      12.17131345       0.26743653      -0.18994544       0.08698268      -1.80685790       0.02367832      -0.43054137
H        3.55782279       8.63943477      21.51924499       0.17820147      -0.60766703      -0.57708921       0.04725223      -0.02470168      -0.06225781
H        8.42471074      10.21780788      21.67762942      -0.40854955      -0.03513662      -0.71698813       0.08637421      -0.13894943      -0.06271414
H        9.81833695       3.92134471      23.38840096      -0.23032343       0.14890766       0.29145551      -0.00601794       0.09730865       0.00723130
H        2.96259457       8.05298997      15.17844506      -0.01076580      -0.32283914       0.50694242      -0.15593834       0.09597136      -0.05910729
H        2.51338029       1.91081923      14.57171460      -1.23526744      -1.02820589       0.23913904      -0.03409634       0.12817225      -0.04546115
H        9.49968412      11.46007494      22.38779118       0.28662221      -0.31520011       0.10099194      -0.08579900       0.06286980      -0.12593167
H       10.04876949       9.64878154      15.19745350       0.01373218      -0.42952483       0.01721362      -0.02651414       0.11864732       0.06164847
H        1.91222588       9.27641580      14.21117952      -0.03335291      -0.07702905      -0.08009313      -0.02405056       0.01579226      -0.18041181
H        2.94449651      10.03114837      20.44178124      -0.36353061      -0.96015374       0.17627865       0.13301707       0.16648554       0.19039639
H       10.20763957       9.92721989      21.63148237       0.51796293       0.07126754      -0.37687567       0.14764020      -0.12498826      -0.16117635
H       10.43345981       2.83614381      22.06636460       0.02436656      -0.31337344      -0.28968788      -0.01763595      -0.10145341       0.02866195
H        3.70747576       9.45252170      14.09227752      -0.24371932      -0.24299425       0.10067824       0.08421390       0.05210788       0.08264253
H        1.75129709      10.82599620      22.49381761       0.63455792      -0.32267906      -0.17701404      -0.08128412      -0.08501391       0.12426076
H       10.43766687       2.79271746      16.78143218       0.73031715      -0.54482276       0.39622989      -0.24870253       0.01645913       0.05735145
H        9.10411157       5.51908305      21.60514210      -0.40823804       0.33169339       0.12690514      -0.07119585       0.09455182      -0.02445158
H        3.06960152       4.59544497      21.34427623       0.41232541       1.38662878      -0.83671047      -0.07947429       0.02842632      -0.03079074
H        3.45813052      10.79059821      22.57525360       0.05896541       0.09661643      -0.03616929      -0.19638535       0.07315551       0.00112609
H        8.78654090       2.54198587      17.21777904      -0.64331935      -0.54662483      -0.14837415      -0.03195441       0.32830181       0.03818790
H        9.85698471       4.59222209      20.44490236       0.17877843      -0.22341835      -1.18570945      -0.05894458      -0.09352609       0.13027211
H        4.07267443       3.99935773      22.63582187      -0.73466507       0.24244366      -0.25271932       0.00140887      -0.04963377      -0.02032371
H        2.58075749       9.61300373      23.40806754       0.06552913       0.29554987      -0.52786854       0.00026842      -0.33323346      -0.10559566
H       10.13694791       9.60073567      24.02794858      -0.01971428       0.01012038       0.06443608       0.11431908       0.07417597      -0.07088886
H       10.79812065       5.30346012      21.67503470      -0.99217054      -0.45451281      -0.61286092       0.08038837       0.18282166      -0.05969502
H        2.32616411       3.85571239      22.60753412       0.00849838       0.33786984       0.69655836      -0.06458054       0.12824893       0.07047625
C        3.30830104       2.60634245      14.46809596       2.11789043       1.44929534       1.04274511      -0.35425556       0.36901423      -0.34128059
C        9.38056573      10.37884871      22.17172635      -0.68512976      -0.21547194       0.86792874       0.28644469      -0.22265695      -0.25399679
C        9.19455607      10.15698547      15.67374274       0.25129517       0.06777858       0.11312843       0.22583406       0.18069505       0.32976215
C        2.84181825       9.14017967      14.79597450       0.24633526       0.82449938      -0.35720189       0.39598748      -0.33420470      -0.00559361
Pb       6.19335427      13.02088077      24.85162525       0.12438848      -0.18375827       0.16436660      -0.89105530      -2.16353333       1.08388469
Pb       6.25566968       6.67967335      25.24698397       0.09614246       0.05596080      -0.37100906      -1.75667428      -0.19579206       0.34593198
Pb      -0.12728367       6.16809204      18.46178435       0.12662152       0.16510106       0.05688227      -1.89828896       0.21767318       2.86482246
Pb      -0.02793388       6.38353542      24.98794533       0.07046186       0.00084894      -0.09842973       3.21492332      -1.18896837      -1.04980534
N        2.61772652      10.19062420      22.51564484      -0.89203749      -0.35706548       0.88297315       0.40784841       0.57058802      -0.39504947
N        9.47884328       3.15558548      16.62055620      -0.00489176       1.56390779      -0.87674993       0.74662919       0.03606717      -0.00510853