768
Lattice="38.16606883306081 0.7708101007676014 0.3666927628512125 -0.3296249581406084 22.360322942442707 0.08526197331993467 -0.1800967783537251 -0.06462717078727989 19.468533293292147" Properties=species:S:1:pos:R:3:forces:R:3:momenta:R:3 energy=-3329.361676413059 stress="0.0 0.0 0.0 0.0 0.0 0.0 0.0 0.0 0.0" pbc="T T T"
I       17.33365782       6.76205993       4.46667788      -0.37677848       0.22672529      -0.03120718      -0.13770431      -0.02065708      -1.47271950
I       18.25194176      10.75333538       1.96900717      -0.16707068      -0.08903909       0.02755679      -2.11494779      -0.10093768       1.76271911
I        8.22173855      11.92274756       4.34758712       0.04118166      -0.04899270       0.06827915      -1.52965204      -2.10815469      -1.17447348
I        7.72430596       4.69434206       1.66137675       0.26005076       0.24988023      -0.07759722       1.28015166       1.78063346       0.08897185
I       15.66215194       3.11396947       1.80370807       0.12458728      -0.20950397       0.10580614      -1.03642153      -0.44399750      -0.28576406
I        0.50049987      13.73910600       4.52739171       0.17143599       0.07309031      -0.23617436      -0.83515631      -0.43878122       0.84809119
I       10.10283237       8.56454665       1.86221104       0.02158160      -0.04837133      -0.07668155       0.86040209      -0.27705309       0.48239393
I        6.03430942       8.01956683       4.00445826      -0.13268558      -0.04072097       0.03394108       0.12409193      -1.15025348      -3.73955932
I        2.30676728       6.02899894       1.78128659       0.08411448       0.20025877       0.29709916      -0.66505599      -0.44831525       0.80891952
I       14.29919990      10.73036883       4.20524014      -0.08830897      -0.07659562       0.09947677       3.43809049       2.04876808      -0.94797975
I        4.34595182      11.78211897       1.80333968       0.08180192      -0.08343249      -0.18333968      -0.59513979       0.33381025      -0.64358855
I       11.78665977       4.88202634       4.25755331      -0.14324441       0.14824975       0.10571582      -0.13578889      -0.43605085      -2.27914237
H        5.21239718       5.37175280       3.48964443       0.28469255       0.18855612      -0.19021941       0.02212831       0.12271044       0.24249952
H       10.91297021      11.79894617       2.94262466       0.32762992       0.12602072      -0.21519634      -0.05465533       0.10242890      -0.12590219
H        2.99473048       9.00415847       3.78877842       0.43135387      -0.11487655      -0.21046972       0.22065091      -0.25791918      -0.10442882
H       14.34044474       6.54621206       2.47925139      -0.23465638       0.24150352      -0.85783780       0.17974218       0.28729392      -0.14173580
H        3.76985410       4.32401159       3.90487599      -0.63862746      -0.05795415       0.21373539       0.13240420      -0.29352259       0.07581843
H       11.58118356      11.62294517       1.18086048       0.02493828       0.28526968      -0.10669565      -0.04244461      -0.11888988      -0.03323240
H        1.41460353      10.23741143       3.56831028       0.33941438      -0.71625002       0.49512393       0.10237637      -0.10174366      -0.14853592
H       13.04312150       7.55347036       1.74438826       0.46448608       0.89260685      -0.01431906      -0.14040127      -0.01369880      -0.08844212
H        4.90077830       4.97980438       5.33579817      -0.49916500      -0.60315639      -1.53988728      -0.07721555      -0.13213682      -0.02780753
H       12.72434196      12.32204094       2.41966311       1.72677551       0.23616905       0.02028946       0.09188382      -0.27925584       0.02134306
H        2.22278995       9.85579915       5.30123557      -0.48789289       0.83887136       1.57341070      -0.22257690       0.03176448      -0.04872405
H       14.26061252       6.81035613       0.66725818      -0.04272512      -0.46092405      -0.14421523       0.06404977       0.21308414      -0.12589130
H        5.37320147       2.72108768       4.97897935       0.19652251      -0.00864058      -0.16540794       0.06026975       0.11267467      -0.03648486
H       11.82444390      14.29508916       0.92512302      -0.14772553      -0.09325611       0.51537780       0.14382549       0.08278855      -0.10547096
H        1.39390862       7.73315547       5.28452878      -0.42668197      -0.39342850      -0.50551053      -0.14154903      -0.08267161      -0.02190589
H       15.14723851       8.95908466       2.61222029      -0.28632877      -0.25104454       0.22788756       0.06024236      -0.24212844       0.20846420
H        6.62298834       3.55509913       4.22458396      -0.08055089      -0.23264384      -0.09186752      -0.02328699       0.15584014      -0.12069948
H       11.13393169      14.24339586       2.58073848       0.31578569       1.03677028       1.21839778      -0.10242003       0.07707114      -0.17963457
H        0.82417249       7.61961910       3.55235123       0.53930175       0.44819058       0.54184913       0.06911202       0.12221617      -0.04190971
H       14.91631378       9.05760237       0.96108504       0.39023054      -0.39703283       0.57791828       0.02298176       0.13524472      -0.02183389
H        5.38188377       2.78467538       3.32845228       0.30272200      -0.41141062      -0.42619152      -0.01536525      -0.15453566      -0.02417778
H       10.01908953      13.89067055       1.25422022       0.20558006      -0.46899808       0.04266547      -0.08879502      -0.12776137      -0.22791291
H        0.01672031       8.65612358       4.72245987       0.01086357      -0.18452675       0.37553539       0.14570337      -0.22338086       0.02402953
H       16.11195462       8.02634886       1.60689081       0.73906183      -0.55694237      -0.13342848      -0.07454020       0.07030220       0.01689116
C        4.80685141       4.60645330       4.20861479       0.73142387       0.42182384       1.81421145      -0.20678265      -1.09500032      -0.50998089
C       11.65031414      12.26854998       2.07317237      -2.03083600      -0.99253996       0.58564414      -0.29270184       0.13599973       0.38064066
C        1.98667130       9.41666822       4.26092224      -0.38077348      -0.42051444      -2.35894443      -0.49228400      -0.21087698      -0.11641653
C       14.10891371       7.28084659       1.64674504       0.75002807      -1.45871304       1.37206269      -0.49387375       0.28326528      -0.44721140
Pb      37.85816464       5.19829111       2.19790080      -0.08247247      -0.31768393      -0.10267150      -1.76972204      -1.16884083      -2.30681597
Pb      16.95014757      12.45509578       4.45273126      -0.11658676      -0.21847924      -0.06422436       0.44476178      -0.44879316      -0.91323288
Pb       7.05024207      10.17074408       1.76103444       0.06777785       0.40132674       0.13769629      -3.67127448       1.01950190       0.35311722
Pb       9.05685673       6.58471109       3.95708733       0.14953147      -0.23346581       0.47246975       0.59709558      -0.33686046      -0.93009548
N        5.61194309       3.34153830       4.17038356      -0.25638051       0.50051454       0.67812843       0.93997042       0.09929375       0.76347319
N       11.13058633      13.72786464       1.71184406      -0.72413703      -0.21270894      -1.76221256       0.60118273       0.08674316      -0.15531880
N        0.98949921       8.27398688       4.44133515       0.15875528       0.57714508      -0.26707370       0.55620500      -0.48979015       0.16445886
N       15.15171397       8.34496677       1.74708632      -1.70179479       2.08713018      -0.99567159      -0.01440735      -0.25180612      -0.63359598
I       17.14050438       6.58925089       9.40980925       0.03573725       0.32217735       0.06840231      -2.22281703      -1.73769803      -0.30674098
I       18.11455950      10.58102828       6.85690577      -0.24414830       0.05111919       0.31058047      -4.85311150      -0.74801458       1.63625678
I        8.08621427      11.71883210       8.98818882       0.05647787      -0.06365992       0.24590512      -0.23100712      -0.38085089       0.50192685
I        7.72994836       4.59378528       6.67710367       0.32249505       0.29698368      -0.03860034       0.27189857       0.79798767      -2.89510809
I       15.55614777       2.99315580       6.95049274      -0.00577174       0.01137917      -0.25815958      -0.72641450      -0.80209111       0.88140082
I        0.72934178      13.87548806       9.16978221       0.06985949      -0.27611882       0.02819400      -2.65498745       2.29879186       3.75084381
I        9.97244213       8.58643888       6.53970313      -0.27768138      -0.17126556      -0.02110119       0.40506830       0.82569037      -1.75715638
I        6.04806365       7.76586848       8.87838067      -0.08490561       0.40212433       0.51470555      -1.74212020       1.13601397       1.85126463
I        2.34843870       6.09948277       6.76517554       0.15641331       0.22474006       0.12843503       0.22315400      -0.18974911      -0.62310225
I       13.90412261      10.61750304       9.14454877      -0.17119057       0.25044801       0.02096410      -1.00160878       1.12691805      -1.95591186
I        4.11183442      11.73955219       6.69117265       0.04735964      -0.00135212      -0.06223148      -0.45141836       1.47873448       1.33114089
I       11.72491892       4.75073019       8.96164999      -0.09450726       0.01895337      -0.08928628       1.84362208      -1.87239648       0.47001631
H        3.73426458       3.11281922      10.33368728      -0.07923699      -0.39572492      -0.25440224      -0.00180694       0.07970181      -0.07773323
H       12.01311581      11.93634536       8.01363031      -0.50673163      -0.63617650       0.89542430      -0.02978895       0.13400393      -0.04115193
H        2.10499149       9.93357508       7.82251555      -0.07348211       0.52359629      -0.79441652      -0.18523234      -0.06363389      -0.03309759
H       14.35166068       6.39630624       6.29233528      -0.15308253       0.54512049       0.18689888      -0.10583238       0.36658010       0.00969387
H        5.28823729       4.87032858       9.74577258       0.74909897       0.37196116       0.66938718      -0.23309885       0.19830523       0.09090885
H       11.48866010      11.69598491       6.25440773      -0.28352444      -1.02743837      -0.99997929      -0.01930366       0.08486087       0.11039598
H        2.05870474      10.39863839       9.53748202      -0.20745895       0.36704800       1.07477208      -0.09736951       0.29384754      -0.00686389
H       14.02020545       7.05123702       8.05430060      -0.19957594      -0.69606469       0.47074367       0.28376556       0.26808230       0.16457496
H        3.73640631       4.17898049       7.95363364       0.42837966      -0.02062184       0.06060517      -0.07165313       0.04134865      -0.11279316
H       12.65728039      13.11132976       6.64158371      -0.56076097       0.21612388       0.01760202      -0.15647563      -0.11186908       0.09547674
H        3.19634547       9.00862934       8.93143161      -1.26626415       0.27417329       0.02490006       0.21799779       0.09547656       0.00417769
H       12.93993335       7.73933910       6.66571848       1.08892945      -0.41720009      -0.08710843       0.06995423      -0.15447514       0.00552177
H        6.87636410       3.55079768       8.41030825       0.69766395       0.68160056      -0.27030477      -0.08949061      -0.09914490       0.10554726
H       10.67463097      14.05989025       7.70005343      -0.21972405       0.88738862       0.96879016      -0.07147190      -0.18741130       0.23038781
H        1.23966219       7.94766171       9.95121736      -0.11909580       0.24394215      -0.03393405      -0.10365762      -0.09482918      -0.01453138
H       14.87639687       9.08977699       7.61088495      -0.71835362       0.64752555       0.63996582      -0.09171845      -0.15278779       0.02514854
H        5.55652525       2.19950606       8.23448590       0.34031693       1.14720359       1.92964379       0.03864488      -0.28073736      -0.11288635
H        9.51676699      12.65286242       7.44007579      -0.87857132       0.02840414      -0.05131293      -0.09920544       0.09711050      -0.11310167
H        1.07597725       7.70829864       8.30305383      -0.02135094       1.04521623       0.99389177      -0.11333613      -0.14198670      -0.11689985
H       14.85606904       9.05611521       5.95252929      -0.32440177      -0.16760070       0.10604208      -0.10258595      -0.25076182      -0.10096730
H        6.41313307       2.49242726       9.97553235      -0.23757085      -0.15326396      -0.45870057       0.12647779      -0.02070379       0.08763127
H       10.08801814      13.88811531       6.07801519       0.11293902      -0.40364807       0.15482551       0.01807211      -0.20336655       0.09691787
H        0.17006245       8.88429739       9.13494011      -2.69629432       0.79354506       0.08685797      -0.07832945      -0.14646438      -0.00056837
H       15.92702081       8.18871171       6.83675568       0.21438955      -0.50179651      -0.14034467       0.19523326       0.20357872       0.21142754
C        4.66042243       3.82607721       9.27029809      -1.53755128       0.93834879      -0.58504178       0.11086917      -0.17637277      -0.21265690
C       11.70344494      12.44798553       6.99100268       1.25074266       1.18342489      -0.62677459       0.22320396      -0.17227937       0.32382071
C        2.16795449       9.52697192       8.84195978       1.61613077      -0.58177143      -0.48259112       0.99790166       0.63502320       0.50694648
C       13.99852286       7.34089513       6.93731267      -1.28099504      -0.46034061      -0.26715406       0.82425849       0.02117510      -0.20318461
Pb      37.96695614       5.17214707       7.09735250      -0.43727575      -0.00959512       0.36722428      -2.09868157       1.43328969      -3.21022879
Pb      16.50835018      12.39015044       9.28691136       0.14738036       0.11665552      -0.15000401      -0.93487796       0.51798273       1.15564443
Pb       6.65453543       9.97637224       6.48688895       0.49130223       0.08247191      -0.08731046       1.09120731      -1.40057857       1.06500173
Pb       9.04418894       6.59025330       8.96801798       0.18227036      -0.27818554       0.11556316      -1.21788587      -2.07022774       2.14899498
N        5.96693203       3.02392775       8.96059496      -0.48706989      -2.71850493      -1.04529253      -0.47695439       0.05412730      -0.08519208
N       10.38840174      13.30954718       7.03426190       1.14304803       0.05072736      -0.83513657       0.46494216      -0.77964770       0.30186231
N        1.06685224       8.51944146       9.08295124       2.70150979      -2.82522098      -0.80312173       0.12115095      -0.07962264       0.85689076
N       14.93280995       8.44343278       6.81451504       1.53957364       0.89452157      -1.18173784       0.25295888       0.07795009      -0.20021874
I       17.20962152       6.64896509      14.40487104       0.08748774      -0.17781530      -0.40236436      -1.07084868      -1.50904433       2.39340441
I       17.91102200      10.65621760      11.61772487       0.08447749      -0.25477649       0.03877846      -3.07508037       1.42574096       0.11897651
I        8.30900528      11.86555191      14.10882270      -0.23099201      -0.22121627      -0.47774252      -0.62270007      -3.17834071       0.65227042
I        7.87006578       4.68301890      11.63513842       0.21638370       0.36413555      -0.00510823       1.01824319       1.80372018      -0.68768599
I       15.73978125       2.96133344      11.57431392       0.02723315      -0.07873010       0.06416049       0.10491897       3.23950417       3.30478367
I        0.63760428      13.82200047      14.04417918       0.13240612       0.01208472       0.02102574       1.24539323       3.57610170       0.46618036
I       10.03158103       8.55673520      11.65841352      -0.12807388       0.10554283      -0.34582692      -3.41352088      -0.22990415       0.75229176
I        6.29126287       8.17518736      14.42797581      -0.49341732       0.01864117      -0.51155459       0.40034457       1.28800520      -2.24840370
I        2.28478286       6.12407800      11.40679529      -0.00384197       0.16095253       0.13651478       0.25190307       1.77729630      -0.37600973
I       14.01283973      10.67270654      13.96718161      -0.24236081      -0.20532334      -0.05355836       1.56899768      -1.75608005       3.59058441
I        4.24917618      11.69477320      11.49206007      -0.12318788      -0.31218249      -0.19460358      -0.00575772      -1.08364353      -1.82398948
I       11.49210886       4.75268271      14.03499131       0.19976946      -0.07984479      -0.11828523       1.30179710      -1.92032107      -0.94608524
H        4.39211751       4.25927656      12.73524420      -0.28467294      -1.31741347       1.58879050      -0.17781815      -0.01860423      -0.29826861
H       11.29358997      11.56378166      12.50153283       0.63609915       0.68813090      -0.27576255      -0.06496447      -0.15901713       0.01494315
H        3.31162445       8.60691287      13.95901441       0.21851507      -0.29529775      -0.40448668       0.23334939       0.06130951      -0.08617193
H       14.90782990       6.24048720      12.17575075       0.34939382       0.58818015      -0.18128956       0.22097143      -0.08468337       0.00540892
H        3.57157981       2.45819409      13.38830106       0.58744524       0.04762957       0.09386008       0.06333038       0.06290028       0.28646374
H       11.03965168      11.74869974      10.75027886      -0.14167795      -0.44568454      -0.45305457      -0.03035471      -0.29819990       0.35081190
H        2.09279392      10.15887526      13.55308788       0.40928220       0.24795555      -0.20213172      -0.01354969      -0.08255189       0.12727746
H       13.14100983       7.40394050      12.21897863       0.25654393      -0.53392737      -0.18089520       0.18747717      -0.20858792       0.16742999
H        4.11147818       4.09199267      14.53594502      -0.01282517      -0.03561859       0.22515052      -0.15770466      -0.10233253      -0.02950446
H       12.53240238      12.51556958      11.35111984      -0.03428072      -0.24758223       0.74856999      -0.22232067       0.09590882      -0.11057698
H        2.55747625       9.60117256      15.34336938      -0.35692799       0.40093914       0.23931112      -0.35426332      -0.01766506      -0.13783690
H       13.98576798       6.77242410      10.34849924      -0.32659030       0.40541777       0.81640411       0.12281440       0.00471196       0.03736862
H        6.22249497       2.02651186      14.42124621      -0.24452165      -0.13028665      -0.50051710       0.24561109       0.14685567      -0.26937980
H       10.78231847      13.99134238      10.92482867       0.24358138       1.56568611      -1.21274587      -0.25959634      -0.13116990      -0.15430595
H        0.91118789       7.66841332      14.88122576       0.23316168      -0.32760414       0.01307552      -0.06000120       0.08375745      -0.02911828
H       15.10407793       8.89225412      12.32280969      -0.35284578       0.29700878       0.19259345       0.07880466       0.08731588      -0.21369994
H        6.82469190       3.77548645      13.62629106       1.17036893      -0.02868441       0.30944538      -0.20376461       0.19368755      -0.16918073
H       10.97849389      14.11975024      12.58618240       0.65249542       0.49707685       0.21547574       0.02524366       0.16828944      -0.27476349
H        1.16432223       7.66384737      13.19439216       0.20717432       0.29362570       0.32494934       0.15357768       0.08541326       0.02428259
H       14.54908520       9.05997757      10.66022351      -0.83731329       0.74784566      -1.12498188      -0.11417139      -0.00730239       0.06889103
H        6.28628429       2.30093829      12.62463831      -0.11614297      -0.78729402       1.04710985       0.23301432       0.13687232       0.03263432
H        9.61093256      13.41037987      11.99831706       1.55416689      -0.01407179      -0.20579432       0.05513277      -0.05366790      -0.00465521
H        0.16556453       8.90789410      13.85360930      -0.57438119       0.35298905       0.04624521      -0.02683217       0.03570947      -0.02687046
H       15.93289844       8.15310284      10.93668776       1.38842713      -0.00896940       0.05668284      -0.07920502       0.05623874       0.13000694
C        4.42855880       3.40654191      13.59329659      -0.62958313       1.77343969      -1.29612232      -0.18584548      -0.66009957      -0.08420576
C       11.46129568      12.25443062      11.64077023      -0.17466503      -0.69592596      -0.03159945       0.49773979       0.56599733       0.15817970
C        2.36839791       9.24386001      14.20862010      -0.96682865      -0.50831556       0.05005478      -0.20434542       0.32241126       0.27395622
C       14.21644283       7.10718929      11.56038360      -1.36087936      -0.06828455      -0.99886836       0.72732497      -0.49036551      -0.02131644
Pb      37.83961791       5.19670319      11.98040610      -0.33485471       0.02846740      -0.20589724      -0.19723890       1.42046479      -0.87125153
Pb      16.57635088      12.21476858      14.11068802       0.09675011       0.19692346       0.02963362       4.52223377      -3.03931196      -1.45992022
Pb       6.89342148      10.05306781      11.46516035       0.27144318      -0.19924322       0.02440376      -1.91701034       2.34431942       4.64598961
Pb       9.07020470       6.84519103      14.14137771       0.11527494      -0.55070328      -0.29114222      -0.06353662       0.13783071       1.45677732
N        6.04893761       2.79104872      13.62825888      -0.49779287       0.60422827      -1.17535219      -0.14428369      -0.51745613       1.81755278
N       10.69812675      13.50872843      11.79072390      -2.78074134      -1.28224440       1.08872450       0.68721896       0.27099462      -0.74648625
N        1.06882197       8.32275267      14.02037792       0.64017607      -0.09858203      -0.38622217       1.14041158      -0.00507143      -0.14192999
N       14.96009178       8.39887923      11.35529485       0.81998078      -1.69425695       1.83148906       0.30666995      -0.63185748       0.23815441
I       17.35964015       6.86321233      19.00920811      -0.00835740      -0.16618768      -0.10567552      -0.70278546       0.36875455      -0.41633265
I       17.85872239      10.42886863      16.43027246      -0.00551060      -0.07041910       0.08571313       0.87512511       0.99834322      -1.58970182
I        8.19427489      12.12409980      19.01028801       0.04576235      -0.11873829       0.02864259       1.74664045       2.71378874      -2.69308167
I        7.83070387       4.81903863      16.31798241      -0.05038607      -0.16388923       0.13259183      -0.33732226      -1.07094984       2.67874044
I       15.83045506       2.91167410      16.63751465      -0.25879726       0.12591390      -0.31317472      -0.27810951       3.06527026      -0.27488550
I        0.26603816      13.76629328      18.98021913       0.47175791      -0.10910657      -0.55662829      -2.61245460      -0.50790168       2.29373775
I       10.17642232       8.74532311      16.54362391      -0.14005687      -0.05838299       0.06364709       0.00488107       2.24372329      -2.30992562
I        5.95464093       8.26009362      18.96789927      -0.03103524      -0.28367597      -0.22102794       1.22775896      -0.15200730       0.57642226
I        1.90021574       6.12248582      16.36225528       0.30317950       0.01940510       0.26189297       1.93190388       0.10443792      -0.07462835
I       13.86010871      10.36660238      18.61703116       0.20462326      -0.03307962      -0.02704843      -2.13584396      -0.32324591      -0.03107187
I        4.16982755      11.81761070      16.67438975       0.17645129      -0.28472395      -0.11167655      -0.65869922       2.63501685       2.38461627
I       11.51674123       4.63710650      18.96657896      -0.03841393      -0.01419384      -0.26974468       0.53169344      -1.19671019      -1.50553456
H        3.75191342       3.54588524      18.41138492      -1.39592091      -0.06151748      -0.12045809      -0.36596373      -0.14809477      -0.00962538
H       11.26309190      12.08490931      17.55024019       0.20146255      -0.19504160       0.47753029       0.31167576       0.09648909       0.12220964
H        1.27452612      10.13769797      18.31334964       0.47661304       0.36507264       0.36137581       0.02859992      -0.01779998      -0.05975917
H       13.64243486       6.14464883      15.50757296       0.08563082       0.07761221       0.37137387      -0.06201123       0.01278984       0.09980191
H        4.54021469       4.91921390      19.39476407       0.20919596       0.01548094       0.39674613       0.20123481      -0.06632251       0.25205566
H       10.91181194      11.52744066      15.82104283      -0.60738237       0.10894984      -0.56258765      -0.33953651      -0.08954026       0.06268389
H        1.07080254      10.20333019      20.14804969      -0.07740060       0.09987294      -0.07491603       0.01327121      -0.10252301       0.07744580
H       14.69355995       6.13102555      17.35725831      -0.11961669       0.28814157      -0.66034283      -0.19897171      -0.08502512      -0.18342626
H        5.04133699       4.53707505      17.59553060      -0.50385700      -0.29504567       0.86158441       0.03689372       0.09266304      -0.00260874
H       12.26077058      12.87185512      16.03582626      -1.51170785      -0.12813858       0.54003934      -0.07585773       0.14986371      -0.07954395
H        2.67379713       9.49918516      19.47388744      -1.44495620       0.81648607      -0.30059323      -0.14978671      -0.06771216      -0.21690447
H       12.89996273       6.97819416      17.12976880      -1.02847400       0.37914564       0.11501507      -0.08183183       0.14822053      -0.02049452
H        6.66007152       3.52278309      19.31339584       1.11968862       0.16368938       0.03681468       0.00407676       0.13454463      -0.04410612
H       10.22254442      14.20672382      17.13006046       0.20771718       0.04512436       0.33392460      -0.02618577      -0.26908038       0.06980575
H        1.33760205       7.48644788      19.77173564      -0.08638877       0.09395104       0.16976384       0.16117230      -0.24074653      -0.31974335
H       14.96376895       8.56439721      17.05093194       0.59656068      -0.76783175      -0.48375932      -0.03089419       0.19608651       0.03252733
H        5.96106985       2.49678246      18.00680200       0.07322867       0.10184277       1.02701363       0.08538525      -0.23281003      -0.16141209
H        9.19703083      13.20820144      16.20765597       0.27899133      -0.16334847       0.31445506       0.07377913      -0.03116150       0.12515614
H        1.08040419       7.94495135      18.09640461      -0.25570344       0.07626759       0.39394831      -0.05409906      -0.01784702      -0.05456321
H       14.21508052       8.69791555      15.44339093      -0.25499110      -0.48694434      -0.63705879      -0.07236709      -0.09647021      -0.18464066
H        5.44473882       2.40733906      19.72107672      -0.32334357      -0.21033851       0.23303555      -0.01728119      -0.03305508       0.15940042
H       10.39449321      14.06422412      15.49614721       0.09285143       0.51783263      -0.18666856       0.01973026      -0.03680560      -0.10018982
H       -0.06551178       8.44172491      19.38106852      -1.61254187      -0.24279200      -0.07064091       0.08785856      -0.28086939       0.04630317
H       15.80496467       7.69378512      15.50719911      -0.67682096       0.44005402       0.22350922      -0.19566447      -0.00922821      -0.11845501
C        4.67832195       4.09415856      18.59473241       0.82998513       0.86257382      -1.21787148      -0.02345286       0.42259411      -0.30172332
C       11.19063900      12.45950618      16.46074030       2.14951023      -0.43934939       0.18888266      -0.22307400       0.76410596      -0.36594439
C        1.52793685       9.66260597      19.28310876       2.13754007      -0.73849976      -0.28659237       0.32372018       0.38346448      -0.36939353
C       13.93246267       6.71323237      16.55594520       1.30272116      -0.10103914      -0.16163088      -0.30381925      -0.60229381       0.26669500
Pb      37.59979200       5.07618531      16.81921565      -0.14027425      -0.13202572      -0.27798611       2.19049934       2.29461897       0.94140403
Pb      16.51241086      12.28007476      18.70754634      -0.14070830      -0.37546965       0.30998822      -1.48158050      -2.24720156      -2.12476610
Pb       6.96867634      10.16660635      16.58248560       0.02980927       0.31014756       0.25086346       1.22741224      -2.89978172       1.39813091
Pb       9.07284664       6.57471946      18.70752056      -0.14298290      -0.13385846       0.14715506      -0.07717657      -2.75161116      -0.82957313
N        5.74652812       3.06823254      18.96591027      -0.21942740      -0.95698645      -1.53817232      -0.23948595      -0.30600166       0.38158453
N       10.18835569      13.51641673      16.35210296      -0.47401130       0.49596063      -0.95558319       0.22313004       0.54294295      -0.08792651