768
Lattice="38.16606883306081 0.7708101007676014 0.3666927628512125 -0.3296249581406084 22.360322942442707 0.08526197331993467 -0.1800967783537251 -0.06462717078727989 19.468533293292147" Properties=species:S:1:pos:R:3:forces:R:3:momenta:R:3 energy=-3318.0717041772928 stress="0.0 0.0 0.0 0.0 0.0 0.0 0.0 0.0 0.0" pbc="T T T"
I       17.25157168       6.93463051       4.45230963       0.06082598      -0.22357007      -0.01086548       3.13168575      -0.97280397       0.80249803
I       17.96873846      10.33164247       1.95377979       0.10146984      -0.21742582      -0.00556570       1.68383538      -1.86364415       1.02123111
I        8.35694450      12.08699594       4.20491187       0.07431762       0.04005901       0.10137495      -3.28469914      -1.96102627       1.54449911
I        7.66859268       5.10609244       1.58698604       0.15275465      -0.40169438       0.36210087       0.83623139      -1.77721387      -1.96550745
I       15.75596155       3.22606464       1.79095990      -0.07772578      -0.02953823       0.00207176       2.84493416      -3.47587336      -2.78056536
I        0.73654209      13.61042745       4.52094363      -0.20104405       0.23171295       0.01780132       1.15069409      -1.90452734       1.61352034
I        9.91207407       8.79432932       2.45344991       0.28461255      -0.24822083      -0.29441122       2.10015355       1.73226266      -1.33282172
I        6.03532242       8.45226375       4.47542607       0.04890688      -0.32240217       0.00781253      -1.06854088      -0.63584283      -0.40656935
I        2.32453900       6.11628880       2.23257508       0.45227716       0.26976798       0.10598405       0.92502767       1.44811686       2.60070211
I       14.10794062      10.69996750       4.49246529      -0.03748348      -0.17168384       0.31001213       2.51571358      -1.87545041      -1.54455663
I        4.37703431      11.91410535       1.67987227      -0.36517724      -0.14480569       0.47069804       3.15386586       0.65409457      -0.21756392
I       11.58886061       4.77563811       4.42585269      -0.11116053       0.01263094      -0.20984586       2.11006659       1.64991312       1.97866958
H        5.40874331       5.57089624       4.02485969      -0.16022740      -0.93168010       1.10029175      -0.06008955      -0.00241648      -0.02462059
H       11.29268258      11.84517555       2.63823003      -0.30061713      -0.47886201       1.48184753      -0.05101394      -0.03296199      -0.19762023
H        2.88780038       9.50480898       4.90964204       1.00834103       0.07663907       0.13218919      -0.20409821      -0.02608877       0.10912498
H       14.20014420       6.69756007       3.70137445       0.08881333      -0.86559202       1.22376451       0.07888934      -0.06586553      -0.04070762
H        3.56503251       4.69421208       4.26743264       3.44222948       0.33700649       0.22760716      -0.13003987       0.03589987       0.11305322
H       11.52353854      11.90832581       0.95917839      -0.24488007       1.07769496       0.29584056       0.40788033      -0.21536315       0.43755393
H        1.91132397      10.33261431       3.59942867       0.03260651       0.38190859       0.32392858       0.04029578       0.06274369       0.26180888
H       12.71857250       7.49155885       3.15780868      -2.38879629       0.57409698      -0.23947642      -0.06714295      -0.19183476      -0.24063909
H        4.82530002       5.15275493       5.79453806       0.10905805      -0.61282921       0.05587387       0.40793664       0.34157420       0.01799194
H       12.45221183      13.03462069       2.02060698       0.78526153       0.21902968       0.05485868       0.30870103       0.08952053      -0.29331810
H        1.45645586      10.54671420       5.48003916       0.37298562      -0.80790598      -1.75232860      -0.07881418       0.14565676       0.10583611
H       13.55204497       6.28830147       1.95684550      -0.40027832       0.29003761       0.20596424      -0.15649710      -0.06003776      -0.42370056
H        4.94365396       2.54586854       5.21622797      -0.53330242      -0.69507369       0.38232547       0.04019145       0.38148598       0.34689390
H       10.65676285      14.38126302       1.22411031      -0.02870437      -0.30821238       0.22423912      -0.02951631      -0.15537414       0.17742448
H        0.92297562       8.12631688       5.36985216       0.58654018      -0.06354124       0.59912401       0.27911055      -0.07918809       0.21844037
H       14.83309451       8.95691072       3.10304363      -0.38403448       0.47782968      -0.33588632       0.02991729      -0.03652383       0.08272133
H        6.61416524       3.43111527       5.28158929      -2.76626495      -0.25939917      -0.39184300       0.06413689      -0.21452162      -0.09792665
H       10.56280767      14.09041995       2.85588729      -0.53729917       0.41145631       0.48679567      -0.05515727      -0.05606823       0.03351738
H        1.55154648       8.04004591       3.77451524      -0.85305806       0.09284334      -0.14303646      -0.14020357      -0.17891259       0.17348502
H       14.38378179       8.69262268       1.34285974       0.00165159      -0.08227507       0.67954522      -0.35281623      -0.15011431       0.19109004
H        5.59598872       3.13985234       3.55966814      -0.26144169      -0.99245850      -0.63771135      -0.18847829       0.01466290      -0.35161715
H        9.52078773      13.17706216       1.76036237      -0.16534480       0.42938916       0.33264239       0.13393527      -0.03153561      -0.04041500
H        0.06870723       9.01696449       4.22363188       0.12649813      -0.50741850      -0.68859506       0.31175010       0.05098001       0.09157048
H       15.62424369       7.80473401       2.11905437       0.32921686       0.10639552      -0.27264972      -0.07959383       0.25509768      -0.03964335
C        4.80774417       4.74180229       4.72929849      -2.50099590       0.87515993      -1.68791628      -0.19424719       0.04938828       0.64285922
C       11.47466789      12.58186196       1.88781151       1.03003854      -1.72945732      -1.66580964       0.60814333       0.87110974       0.25654103
C        1.88019771       9.85664618       4.63083278       0.47435177       2.14243927       1.48789631       0.47061643      -0.45400372       0.06241974
C       13.66257805       7.09587166       2.80716862       2.89775849       0.17033039      -1.39414454      -0.47585032       0.33376463       0.98866199
Pb      38.03615443       5.27035955       2.31341641      -0.40655179      -0.06145205       0.29395208       0.72741482       1.07772277      -4.54327068
Pb      16.79912256      12.19502442       4.27023877      -0.05376330       0.11981610       0.23788945       1.49012927       1.50277372       0.43485996
Pb       6.96694759      10.20636533       1.77773463       0.26315575       0.03549382       0.41913573       0.69351181       4.63984733       0.87598974
Pb       8.99495398       6.62061778       4.38301464      -0.10590872       0.05024163       0.25663013       6.84717720       2.56375036      -1.57431511
N        5.48900707       3.38484211       4.65969278       2.74127569       2.16525100       0.95205836      -0.04326534      -0.42822859      -0.24355213
N       10.47213064      13.60816813       1.93771997      -0.38568512       0.57506594      -1.12016672       1.45374607       0.47155978       0.45787933
N        1.06217500       8.71817868       4.48393240      -1.49556358      -1.59674684       0.11852156      -0.20470723      -0.45775494       0.73441039
N       14.67187902       8.23153574       2.27958634       0.22881695      -0.78576681      -0.12031152      -0.22325856      -0.26421846      -0.08477822
I       17.59932270       6.83637471       9.17913116      -0.24551597      -0.20762831       0.02290674      -1.95218676       3.00239625       0.00146267
I       17.81723712      10.34406794       7.03449138      -0.02222692       0.09733649      -0.24250212      -0.06381691       0.26379724       3.06497610
I        8.65250098      11.89407950       9.29740447       0.03970335       0.00805729       0.24634574      -1.44643727       1.00479294       2.83240714
I        7.89393034       4.61687541       7.13004649      -0.23071340      -0.06118980      -0.42750196      -0.53288198      -2.25353099      -0.61804919
I       15.78777891       3.03123703       6.58239108       0.10239584       0.00511544       0.23922933      -1.93211133      -4.94819088       0.53397599
I        0.09000507      13.37120454       9.12735241       0.55613268       0.17199972       0.26594305       1.39026822      -0.63109733      -2.43783368
I       10.27745355       8.40549816       6.64973853      -0.25548855      -0.08094189       0.07178880       0.23945541       0.51270573      -0.42036833
I        6.21496164       8.30303199       8.96958838       0.17189859      -0.13447656       0.45542411      -2.78847986      -3.66419968       1.79061520
I        2.18412186       6.25467045       6.93682157      -0.46383394      -0.19414137      -0.18192973       1.52066165      -2.01221786       3.65137841
I       13.51103700      10.71447413       9.37573136       0.21733634      -0.22146068       0.26769188      -1.15981672      -2.81078307       0.38616873
I        4.54525734      11.86184940       6.64118485       0.17117080      -0.21843096       0.10103645      -3.54713370       0.55374886      -2.44098521
I       11.61032868       4.56621826       9.05959935       0.42154160      -0.12241266       0.06842652      -0.86403928       1.04165530      -0.61259609
H        3.09016571       3.49183084       8.37363148       2.33446437       1.63505569       0.16687684      -0.20057096       0.23620989      -0.19929430
H       11.43743758      11.36951500       7.81305238       0.15223725       0.61090049      -0.04057310      -0.08940555      -0.23585700      -0.09540109
H        2.19700947      10.12025586       8.51847848      -1.15708380       0.01166949      -0.57219375      -0.21567526      -0.09127310       0.11105236
H       14.64291208       6.83551954       5.77925984      -0.27745051      -1.23450106      -1.37463927       0.01454340       0.00889903       0.11692960
H        3.64676827       4.37203771      10.52008457      -0.20833216      -0.37387037      -0.95181828       0.01586354      -0.12444680       0.32472736
H       11.27200922      11.57596861       6.09278310      -0.29332814      -0.49747670      -1.01645448      -0.02653760      -0.16884508      -0.08234416
H        2.34155778       9.92142250      10.33461743       0.18661310      -0.55563992      -0.81049967      -0.03843503       0.22863427       0.03241944
H       13.61600605       6.42861019       7.49706241      -0.13360861       0.45247586      -0.55111573      -0.38738310       0.02479584       0.07523283
H        4.87190288       5.04953827       8.63731063      -0.71475120       0.11996792       0.89197781      -0.22853273       0.24830130      -0.06307266
H       12.73306730      12.23490561       6.82605623       0.40355538       0.26913816       0.38985092      -0.06410756       0.39285643      -0.09877592
H        3.17852513       8.72613037       9.04757967       0.60909562       0.49933090       0.56061910       0.05299463      -0.32378974      -0.36189167
H       12.85736299       7.51579034       6.13608069      -0.20216882       0.83078979      -0.20726925       0.40612259       0.16119731      -0.07921654
H        6.11554945       3.40568992       9.41972987       0.62919387       0.35247880      -0.01512377       0.28412035      -0.05692127      -0.01977362
H       11.08812016      13.95482608       7.90334116       0.57106896       0.67150724       1.22514060       0.06407005       0.21269193       0.05390333
H        1.49418362       7.67869164      10.17140648       0.54122091      -0.20927229       0.29874723       0.10163384      -0.11913833       0.11991096
H       14.43696083       8.75992379       8.06547880      -0.30989058       0.68434463       0.97017342      -0.10808650       0.01368707       0.07306979
H        5.18538202       2.42930709       8.38652985      -0.00715953       0.55432354      -0.06522884       0.03273697      -0.11351654       0.35451699
H        9.83986731      13.28352847       7.11612059       0.96582623      -0.22163195       0.19269657      -0.15553103      -0.17352864      -0.02210854
H        1.14673659       7.57805628       8.54529479       0.01353346       0.96683957       0.06839833      -0.21996695      -0.00987566       0.06878683
H       15.18317775       9.17030213       6.46551181      -0.16939469      -1.07430177       0.73542969      -0.01539652      -0.01770423      -0.12863651
H        4.97437403       2.35329213       9.98939850      -0.21417842      -0.14407522       0.71456158      -0.38754731       0.40282050      -0.31315227
H       11.04094603      13.99570289       6.32105023       0.56325813       0.59817801      -0.94594663       0.21566644       0.08203441       0.54991030
H        0.28169404       8.62626078       9.76414087      -1.24474727       0.47287922      -0.74511085      -0.24490090       0.00091890       0.05352349
H       15.91493485       8.04737351       7.66337880      -0.54635499      -0.63795578       0.02397797       0.23715904      -0.17128510      -0.11102952
C        4.11246825       4.13244998       9.21582752      -1.60672660      -1.25504452      -0.71380898       0.02712917       0.21454685      -0.15998118
C       11.65118000      12.06842582       6.97916994      -0.63476345       0.02465338       0.49090385      -0.18465568      -0.00317476       0.15325180
C        2.22622831       9.34810977       9.30980989       2.08194512       0.57724894       0.80422459       0.75710495       0.23585436       0.06513094
C       13.89570909       7.24014690       6.60173407       1.27166200      -1.41825141       1.65312572      -0.13400297       0.71273028      -0.42457988
Pb      37.70838587       4.96949388       7.35284031       0.22857645       0.46718285      -0.21426124      -1.91029268      -2.83312745      -0.06609817
Pb      16.37276889      12.13595963       9.36377546       0.08950532       0.21376651      -0.29846545      -0.27613032       2.00184533       4.21222498
Pb       7.30969950      10.21431741       6.82309693      -0.02896764       0.20631712      -0.23133893      -1.14461423      -2.14851443      -2.05747257
Pb       9.16945631       6.23195705       9.26296628      -0.28157927       0.41448799      -0.11023757       2.11022506       1.34454274       0.10041120
N        5.15921287       3.05813861       9.24630547       0.02243626      -0.99179428      -0.04835844       0.11385125       0.03234769       0.58311455
N       10.91062234      13.37817394       7.11490793      -1.97399685      -1.39995229      -0.53681460       0.45158061      -0.16131595      -1.09070550
N        1.23816743       8.31214525       9.38187112      -1.26767452      -1.39293731       0.13221036       0.20349188      -0.45858086       0.31411246
N       14.90315847       8.29067120       7.24373438       0.34699013       2.49187914      -1.55408635      -0.81157684      -1.57283046      -0.92202789
I       17.25998224       6.65516982      13.89665906       0.11309393       0.02684989      -0.04526190       0.09460866       3.57627939       3.43470350
I       18.03820853      10.45655277      11.59318559      -0.24005176      -0.05658871       0.17977848       1.19573324       2.88013194       2.15125399
I        8.89994708      12.10223795      14.12192008      -0.26592321      -0.18311910      -0.04339089       3.67705962       0.87822590       1.74869691
I        7.75930485       4.62615299      11.45809029      -0.01143659      -0.05564135       0.25351565       0.05181606       2.46750620       1.98269988
I       15.68696809       2.80846159      11.91998112       0.31546485      -0.06350527      -0.42633081       0.29364402      -1.24354377       0.85148976
I        0.75314449      13.66276030      13.81198569      -0.18472037      -0.05304625       0.13450821       0.81313772       2.14511947       0.35646881
I       10.33711082       8.03139476      11.86118607       0.16796813       0.12153483       0.20405179       0.02032872       1.55785986      -0.75853196
I        6.20312304       8.43359530      14.24324664      -0.08680633      -0.30775520      -0.05452358      -1.15322457       1.40862148      -3.91257754
I        2.15058461       5.97340891      11.45663521       0.27580779      -0.08162867       0.32659274       2.23088300      -1.11690785      -0.73188823
I       13.72870176      10.56556371      14.40065509      -0.27321884      -0.30798626      -0.11588633      -0.90801789       1.54194403       1.67945063
I        4.86536584      11.38249587      11.89497891       0.16695692       0.17781346       0.20590439       3.67695616      -0.26795066      -1.64453780
I       11.60649908       4.83681870      14.30601218       0.14666499      -0.24956146      -0.52784767       2.47608173      -3.62797724       1.38956371
H        4.41022249       4.51883489      13.06808919      -0.02387118      -0.16949413       0.22648418       0.17247261       0.05229754       0.01085341
H       10.75296987      12.25412723      12.92292821       0.44514615      -0.01728977      -0.01452931      -0.01592053       0.00656728       0.32800431
H        2.91277694       9.46531438      13.12319218       1.36559344      -0.65321716      -0.32143449      -0.08913165      -0.16232894       0.00898102
H       14.88301934       6.18631034      12.48010495      -0.84162776       0.62119598      -0.65588752      -0.09446403      -0.00392100      -0.11695986
H        3.65611630       3.91205675      15.08123804      -0.83943992      -0.09307033      -0.79763021      -0.42944600       0.15209684       0.24723124
H       11.90501463      12.34167780      11.11833831      -0.09123885       0.50026029       1.10937446       0.09048200       0.37399177       0.21857058
H        1.21185641      10.37199218      12.88949121      -0.13156316      -0.18750471       0.19138407      -0.09771704       0.17258398      -0.04541508
H       13.27919239       6.52035374      11.23409677       0.66403809      -0.20528432       0.26402194      -0.01371413      -0.07625405      -0.04635910
H        5.21847399       5.27817116      14.92940971       0.41299435      -0.87824713      -1.23356893       0.34757109       0.08620730      -0.01415058
H       12.79596112      12.97410798      12.75838493      -1.66859781       0.49499678       0.35765433       0.03284804       0.05172598       0.06468867
H        2.06380455      10.02671434      14.70969498      -0.54790239       0.32084623       0.06415151      -0.18596689      -0.22454394      -0.09795359
H       15.32860637       6.21067037      10.73821490      -0.36159303       0.35719928      -0.01970389       0.07648100      -0.09093888       0.11809461
H        5.13754355       2.43001135      15.22973526       0.20910332       0.40640286      -0.85158836      -0.02921996       0.06274714      -0.06300162
H       11.05442773      14.42685930      10.69217759      -0.46006305       0.10019797       0.07483715      -0.19977391      -0.19110432      -0.06409355
H        1.57220391       7.73556847      14.66188600      -0.72608042       1.32024538      -1.56404396      -0.08240215      -0.03482866      -0.12237842
H       14.32137946       8.68513801      12.79474075       0.50458987      -0.35091704      -1.21036581      -0.09715889       0.24727616       0.26490480
H        6.53928795       3.17651776      14.68626607      -0.02222146       0.14389174      -0.58968911       0.05390342       0.11448027       0.41041147
H       10.95841305      15.07864475      12.34556707      -0.01774884      -0.64637475      -0.05310202      -0.06294791       0.07444434       0.06331388
H        1.24952347       7.72163896      12.97343665      -0.39698693      -0.13616100      -0.45785441      -0.03960142       0.17678405      -0.33126999
H       14.33728289       8.97557174      11.07950934       0.21245960       0.57813940      -0.21215533      -0.26706704       0.41218807       0.09227113
H        5.43145859       2.44494990      13.57792153      -0.10953198      -0.57544382      -1.11460657      -0.32636027      -0.12780109      -0.29388479
H        9.82184262      13.85737239      11.82758236      -1.08176686      -0.03380662      -0.29045006      -0.00054128       0.17574949       0.05843302
H        0.08896941       8.54127886      14.01768907       0.69404207      -0.74304172      -0.04983155       0.13543812       0.29179468      -0.02826921
H       15.97941951       8.56606481      11.76412976      -1.60596099       0.35556781       0.13343601      -0.24564319       0.13002213       0.03649160
C        4.66960550       4.28222549      14.31679542       0.57519977       0.59221896       1.47933553      -0.87052903       0.09714481       1.59063122
C       11.63691812      12.87708237      12.20208676       0.13830760      -0.72717010      -1.23761021       0.07778295      -0.02987097       0.31519832
C        1.86020194       9.63075243      13.58988386      -0.26451614       0.50384281       0.28748547       2.02638638       0.10045867       0.01682500
C       14.49678937       6.72012631      11.54537687       0.92769690      -1.01111864       0.61331005       0.18157658      -0.86305676       0.66731991
Pb      37.70877414       5.10647178      11.99670125      -0.32194026      -0.31040986      -0.21797590       1.24100226       1.54330339       2.33685055
Pb      16.28743015      11.97460262      14.03597309       0.61715511       0.32299216      -0.18157209       0.06840501       3.88929824       3.12146081
Pb       7.68472271       9.80385092      11.70474800      -0.33026294       0.49401665      -0.13869460       0.81120285      -1.05406981       6.76260656
Pb       9.03860529       6.36343346      14.32052129      -0.17361011       0.11366950      -0.23825847       1.00380876      -3.47543341       3.34411196
N        5.51522964       3.04025234      14.39504974      -0.04143651       0.72346445       3.09599138       0.49007216      -0.30858206       0.71314492
N       10.78513280      14.13113334      11.73030892       2.66975827       0.16966199       0.03489720      -0.34842277       1.00947986       0.95549143
N        1.12096121       8.33353044      13.79427544       0.27993922      -0.49250508       2.39864317       1.27530183       1.39490542       0.05554619
N       14.81913343       8.33602049      11.80550169       0.41342933      -0.28834126       0.89837758       1.57742803      -0.52231194       0.46942100
I       17.21124912       6.74174214      19.09298333      -0.57666833       0.15781857       0.06203527      -2.82028331       1.55060601      -0.83033061
I       17.57150309       9.99867435      16.50603532      -0.13448813       0.16203566      -0.16306196       3.02961275       1.22720756       0.27649011
I        8.28470955      11.89021063      19.18723930       0.22924550       0.29430482      -0.21929840      -0.81705722      -1.19191875      -0.37967580
I        7.62096006       4.83968169      17.10986461       0.07901292      -0.22252234      -0.26355642      -0.24028130      -0.18912589      -1.04709414
I       15.30362761       2.84755642      16.04627155       0.55010919      -0.13755062       0.41226159       0.58800217      -5.04671091      -1.09797981
I        0.72328968      13.58689377      19.06304630      -0.02628745       0.07678108      -0.09142117      -0.23621248      -0.68621984       2.56809038
I       10.24328219       8.29555999      16.47354384      -0.02163979       0.29355786      -0.18586217       0.87988146       1.93837621      -0.42140930
I        6.32170903       8.26633064      18.77689324      -0.04177393      -0.26621225      -0.17805573       3.79502524      -0.76919435      -1.44408007
I        2.06633119       6.28638765      16.85889853       0.16944509      -0.06233925      -0.49901983       0.84236361      -0.33065097      -0.72124905
I       13.81116913      10.33678736      19.13044857       0.15282355      -0.05065575      -0.22825115       1.40629744       0.21976676       2.12007288
I        4.66920004      12.03603387      16.77616981      -0.36607881      -0.28530833      -0.09558545      -1.49744686       2.30278238      -0.36228468
I       12.04888424       4.77043812      19.09447353      -0.13435306       0.24032403       0.03069229       0.65620707       0.88061424       1.24009245
H        3.44812442       3.50077194      19.80336512       1.06937313      -0.23778144      -0.44516901      -0.07066555      -0.13828414      -0.17689395
H       11.45528051      12.92331550      18.53146473      -0.23529005      -0.99607270       0.51522092      -0.02571740       0.24513404       0.08120887
H        2.00209588      10.35860548      18.18058848      -0.04396489      -0.01663483       0.20311674       0.06791759       0.25708291       0.12792063
H       15.02256845       5.58679135      15.72705104       0.14389695      -1.14706005      -2.21545144       0.13058890      -0.17576431      -0.09262721
H        4.78358490       4.65609518      20.17541130       0.42425662       0.88559663       1.49602278      -0.10355668      -0.06421640       0.07376005
H       11.61845252      12.16107238      16.71796960      -0.33891371      -0.34422844      -0.08769422       0.15023999       0.19905011       0.20365316
H        2.95390227      10.35588378      20.01582381      -0.29866182      -0.61871371      -0.38818272       0.06699795       0.17651592      -0.15200033
H       14.47821080       5.84636728      17.37697682      -0.25288396      -1.25865190       1.38241549       0.15646915       0.02656086      -0.07394230
H        4.22989790       4.69995374      18.50489760       0.32125838       0.19012889      -1.31333012       0.32121216       0.16337854       0.03356501
H       12.74434803      13.33136258      17.33064295       1.70314365       1.03707982       0.11594785      -0.13904056      -0.13062670      -0.28301391
H        3.59413427       9.21835124      18.41356231      -0.32015414       0.56526961       0.09106143      -0.13905869      -0.14844516       0.06333318
H       12.97258885       5.97852255      16.05550676       0.55189335      -0.21394730      -0.12088048      -0.27435749      -0.12186623       0.04781232
H        6.60303755       3.65049841      19.05135195      -0.91906436      -0.57798957       0.14811424       0.09319070      -0.01380046       0.16970944
H       10.81323982      15.03001446      17.66755052       0.18399658       0.32415885       0.21833566      -0.31467384      -0.11539437       0.16540230
H        1.97817983       7.90210053      20.06677437      -0.05919235       0.43329067       0.08364929       0.27542745      -0.33291648       0.30639114
H       14.01303977       8.26043535      17.38456344      -0.12438735      -0.00856510       0.10358219       0.14509292      -0.41192340       0.23383894
H        5.48835338       2.51704200      18.33713453       0.29977394      -0.27345533      -0.92582159      -0.17533781       0.22111921      -0.18793139
H        9.86098189      14.10029330      16.65536572      -0.61546228      -0.69718419       0.41010975       0.06441844      -0.13496018      -0.09747217
H        1.40695606       7.88380170      18.42781095      -0.08571800       0.55886638      -0.12328243       0.25455976      -0.31115231      -0.03925587
H       14.17539436       8.28010726      15.75756912       0.08701915       0.71373691      -0.58856446       0.06970771      -0.07767860       0.16684061
H        5.73079229       2.22595930      19.84947183      -0.25627059      -0.13603559       2.07302179      -0.01361548       0.16600829       0.03153057
H       11.12491004      14.77692345      15.97817255       0.73108588      -0.48739406       0.56007232       0.02731964      -0.08963207       0.29091993
H        0.64094563       8.97945318      19.70972324      -0.74660912      -0.31270214      -0.03850451       0.16843991       0.38731984       0.04781142
H       15.57408115       7.95325168      16.67075489       1.23121847      -0.32495174       0.01665444      -0.09400439      -0.22868707      -0.00408300
C        4.46288973       4.02057294      19.39433968      -1.32012287      -1.31109470       0.98951341       0.07983107      -0.34674307       0.01057268
C       11.73505379      13.08597878      17.40137065      -1.58038743       0.16967739      -0.70206759      -0.33426335      -0.40620507      -0.31348425
C        2.58550079       9.73831902      18.97626319       0.46743279      -1.70596445      -0.36489132      -0.89034668       0.47368731       0.43539665
C       14.18365232       6.16349386      16.38069947      -0.79558389       1.54253969       1.60748930       0.54203437       0.97893357      -0.88032219
Pb      37.83815241       5.02905430      17.04975662      -0.12674771       0.14521442      -0.14163138      -3.48167113      -1.85625808      -2.19059172
Pb      16.60755430      11.86885288      18.96522069      -0.17423853       0.00336259       0.14104233       0.56353284      -0.00501762      -4.33534936
Pb       7.17613118      10.47029738      16.43211601       0.51755839      -0.31454187       0.13498018       0.26655076       3.17207834      -0.69945848
Pb       9.35977782       6.50926453      19.01212819      -0.09636015       0.47744735       0.20899136       5.64113197       3.18687121      -2.45184458
N        5.66820904       3.05238051      19.19020833       0.35473469       1.32050907      -2.11360144       0.58790144      -0.64847901       0.15348446
N       10.85783711      14.28567783      16.90677856       0.01650908       0.59542286      -1.48343204      -0.12660284      -1.26283316       0.41352726