768
Lattice="38.16606883306081 0.7708101007676014 0.3666927628512125 -0.3296249581406084 22.360322942442707 0.08526197331993467 -0.1800967783537251 -0.06462717078727989 19.468533293292147" Properties=species:S:1:pos:R:3:forces:R:3:momenta:R:3 pbc="T T T"
I       16.54599729       7.12523365       4.11077264      -0.03732458      -0.08511952       0.08665359       0.03256542      -0.94305057       0.30338627
I       17.31394248      10.90903847       1.96904470      -0.10518371       0.10906910      -0.00941486       0.86086217      -0.22065876      -3.76246536
I        7.70492178      12.47301310       3.90702283      -0.09454044      -0.04608336       0.38126753       2.35556182      -0.90751856      -0.11980718
I        7.03744549       5.14440346       1.62292909       0.11722577       0.07714563      -0.20414072       1.21120442      -0.52302270      -0.20418116
I       15.06367910       3.52951128       1.77693362      -0.18401419      -0.06798508       0.15487838      -0.13984293       0.13344468       0.20345925
I       37.91559287      14.99595227       4.55055376      -0.02686398      -0.05017736       0.02861169       2.64828142       1.04915942       2.43108605
I        9.27446733       9.01704238       1.64932628       0.04501467      -0.13857309      -0.10557674      -0.90555361       0.15092632      -0.55975285
I        5.22086442       8.67328993       3.79141664       0.17329245      -0.16955674       0.42854106       0.60846491       0.93518160       1.15957479
I        1.38072034       6.32240151       1.61741931       0.29302561       0.36175950      -0.00145528       2.11619319       2.30142871      -1.30131911
I       13.36421271      11.17930362       4.21329697      -0.04392474      -0.12881821      -0.15807214       0.48497441       0.07942571       0.48963871
I        3.71503065      12.29662448       1.64298317      -0.48050253      -0.01098191      -0.02765887      -0.29911174      -0.49465209       1.70676838
I       11.15153994       5.49582782       3.84672381      -0.02020872      -0.06767963       0.12996639      -2.07855098       0.99129247      -0.22629860
H        4.39165662       5.41454637       3.22295766      -0.25864187      -0.09966276       0.27845135      -0.14140649      -0.10232057      -0.16092833
H       10.69504023      12.39602222       2.37716567      -0.36335791      -0.37723545       0.04906330       0.04994173      -0.11994275       0.05512141
H        2.17730533       9.75864461       4.11805897      -1.74517991       0.30844241      -0.23562185      -0.11267997      -0.26384237       0.03075717
H       14.23364501       7.03260282       2.53195973      -0.09246408      -0.19655291      -0.65030928       0.07389014      -0.01447541       0.16428252
H        2.85355552       4.16847491       3.43472562      -0.17268780      -0.15274980      -0.24813555       0.11460232       0.02569093      -0.09077985
H       10.60814549      12.45425165       0.53535311      -0.32621779       0.35970266       0.61468768      -0.17023207       0.06397201       0.02388945
H        0.88032743      10.60786195       3.15590267       0.13437562       0.73798418      -0.18684047      -0.19320201       0.07186658       0.07590279
H       12.31111759       8.03151211       2.75703782       0.48640828       0.62589060      -0.54328940       0.11812304       0.15935589      -0.02324248
H        3.61973823       4.95728445       5.00843898       0.33096145       0.30676666       0.30382569      -0.21255518       0.03277749      -0.00928555
H       11.86186155      13.33772630       1.46709202      -0.88986731       0.00560458      -0.10043940      -0.08842954       0.00346839       0.22167374
H        0.88009421      10.61341526       4.97217651      -0.64225327      -0.12355072      -0.04560113      -0.22063967      -0.03951168      -0.09391124
H       12.95432566       7.34598683       0.72612953       0.11309293      -0.71226819      -0.87868737       0.09327348       0.12723614      -0.02674878
H        4.46569643       2.78039542       4.69766662       0.51380411       0.06927681      -0.14091458      -0.02191105       0.07605680      -0.06303808
H        9.92974065      14.91459964       0.78374363       0.01526351      -1.00475834       1.33747812      -0.09323911       0.01366058       0.25984131
H        0.44638177       8.20007515       4.68975801      -0.22891951      -0.60046553       0.19774438       0.14353582       0.01655134       0.01140428
H       14.58727550       9.50438953       2.36032580      -0.68004208       0.76922508       1.42129778       0.00183819       0.03061729       0.02182548
H        5.85253419       3.79702525       4.20620996      -0.98721454      -0.29837364       0.18327458      -0.07953185       0.10316181      -0.13009378
H       10.03647743      14.77540726       2.50106392       0.32973753      -0.22849017      -0.35974765       0.09925551      -0.03455633       0.15444849
H        0.63786083       8.30786262       3.00343974      -0.35479790      -0.12328324       0.56655702      -0.07024914       0.01863561      -0.07928240
H       14.04611363       9.48389847       0.71577778       0.06386571      -0.45006875       0.71840522       0.00452846       0.14514050       0.18265865
H        4.90450001       2.89744673       3.06904039      -0.13416331      -0.01161037      -0.41134667      -0.01088109       0.15753481      -0.10454461
H        8.88107355      13.87328158       1.69436641       0.74079100       0.27557269      -0.06678259       0.12658235       0.05056293       0.13717746
H       37.38642063       9.69652423       4.12738496       0.27230344       0.12830693      -0.00675045       0.08582653       0.11834299       0.00196422
H       15.35321379       8.47912755       1.23335338       0.09410507      -0.12916949      -0.19867501       0.00103997      -0.09513975      -0.01334945
C        3.85986233       4.57973531       3.89159793       0.22282533       0.15861828      -0.66720445      -0.30404664       0.28514013      -0.30951632
C       10.78466028      13.01257865       1.48244145       1.63950801       0.57082882      -0.34548396       1.13271574      -0.24041195       0.48943481
C        1.05898043      10.04369443       4.05717432       2.26480372      -0.31734679      -0.15212832       0.23308783      -0.18182442       0.16450044
C       13.39134085       7.76535177       1.85232686      -0.38683618      -0.54251322       2.46946045       0.57180080       0.28558196       0.25731269
Pb      36.92498442       5.59434083       1.95978102      -0.00843587      -0.12596842       0.05149779      -0.35072432       0.43643030      -1.42036686
Pb      16.03432935      12.75879048       4.36059131      -0.17373707       0.19479890       0.20040961      -0.41737568       1.08911793      -1.79519031
Pb       6.16488361      10.58766476       1.52983331       0.39871629       0.00974843       0.02727283       1.07677219      -1.34286567       1.03218400
Pb       8.38387056       6.94928266       3.88245172      -0.34313843       0.05566695      -0.06332400       1.37057880      -2.04888493       0.20641596
N        4.84886689       3.46841273       3.95495577       0.55526973       0.01769558       0.85410078      -0.64378670       0.39569440       0.28090108
N        9.88616629      14.20295888       1.62844509      -1.13228477       0.34941607      -1.19166551       0.16208890      -0.24121488       0.42316987
N        0.25631798       8.80975847       3.87908022       0.43074281       0.10913560      -0.12001288       0.33271192      -0.03358740      -0.64585372
N       14.38042220       8.85594027       1.54274062       0.26197956       0.69217634      -2.15080035       0.44534776      -0.13474827      -0.10523193
I       16.42673216       6.97169077       9.22158975      -0.03392294       0.11533986      -0.11633446       0.99318901      -0.16765132      -0.01755088
I       17.14559796      11.05214228       6.78617351       0.10166169      -0.19901670      -0.11743775       0.68448657       2.76973687       1.05310528
I        7.29997366      12.41555521       9.00266815       0.17018586       0.12994609      -0.37024172       1.94613324      -0.32991217      -0.44481041
I        6.98365311       5.13788188       6.47527832       0.00108118       0.02961544      -0.04612513      -0.40513432      -0.38248056      -0.42198172
I       14.89335887       3.53349191       6.91697638       0.21177612      -0.16372880      -0.25061213       1.97444511      -0.66134997       0.11164104
I       -0.10697016      14.21728057       8.83649187      -0.21635023       0.00542216       0.07966920      -1.92830957       1.23001734       0.94681912
I        9.17378363       8.90752150       6.39178503       0.17536328       0.11825320       0.09163473       0.22998046      -0.08315452       0.87214804
I        5.18141192       8.71143376       8.95232950       0.07149236      -0.10764516      -0.36525274      -2.07541142       0.25663802       0.78180911
I        1.31313948       6.61735540       6.27057236       0.10339335      -0.04931425       0.19378626      -0.97797754       0.00441817       0.29008564
I       13.43450450      11.16776001       8.86845987      -0.18786634      -0.03949032       0.09370656       0.10360234      -0.70186695       0.38994515
I        3.56905208      12.23977936       6.34122405       0.04390177      -0.02010629       0.02833998      -1.59897731       1.81816906      -1.54302392
I       10.85389534       5.43079437       8.92899325       0.19011439      -0.03608450       0.03396474      -1.44294195      -0.13253948       0.11221981
H        2.61135110       4.01631892       8.82696080      -0.35586408      -0.07171727      -0.08494292       0.12736018       0.04239082       0.09189079
H        9.97532207      12.85356072       8.15773890      -0.21005076      -0.18709960      -0.51126778       0.08804550       0.02562921      -0.07077207
H        0.69852998      10.36563864       7.79312861       0.02036743      -0.17555778       0.75503113       0.04821073      -0.01249810       0.03827429
H       13.64835030       6.91832177       5.73613462       0.01337743      -0.29252910      -0.34220206      -0.11242409       0.02016104       0.09548151
H        3.62305791       4.91753010       9.99727914       0.22056086       0.07618678      -0.03482015       0.06175091      -0.03429209      -0.07561180
H       10.70023900      12.27702675       6.32211028      -0.41301231      -0.24413032      -0.03416812       0.29647407       0.00183054       0.06004130
H        0.71346616      10.64271490       9.62718944      -0.08448410      -0.18410064      -0.18198065      -0.03133477       0.00112860      -0.05378647
H       13.67364891       6.91261600       7.53537188      -0.08678119       0.67837743      -0.83039171      -0.15325873      -0.01816990      -0.09596798
H        3.82207771       5.23799059       8.18854650      -0.07646303      -0.19870935       0.39861173       0.06353638       0.05503160       0.00526834
H       11.69614995      13.22430425       7.42096694      -0.39003526       0.51567534       0.01770177       0.02666828      -0.10850022       0.02827892
H        2.01437306       9.71643937       8.81035444       0.72901887      -0.14870739       0.16641447      -0.12198948       0.11167249      -0.39027247
H       12.43273743       7.86940928       6.62686713      -0.39893827      -0.07905478      -0.00415972       0.07695702      -0.00878028       0.20636924
H        5.59306202       3.68946157       8.73645178      -0.58265357      -0.09428259       0.49978582      -0.10359937      -0.03590701       0.02147986
H        9.66800759      15.12434052       7.28056321      -0.13018545      -0.33105411      -0.46919276       0.10142638      -0.05639098      -0.08473427
H        0.58906001       8.09869754       9.77270591      -0.28154174      -0.36959749       0.40857649      -0.09218815      -0.15575467      -0.11463252
H       14.14606752       9.37953311       7.35793515       0.19306281      -0.21500771      -0.33923973       0.07413591      -0.24873824       0.05405830
H        4.45722454       2.72348961       7.98347402      -0.13139128       1.06445763       1.06311594       0.03745301      -0.14546140       0.01907192
H        8.79839951      14.28341213       5.88899962       0.96153900       0.25392741       0.12889534       0.01054048      -0.12982193      -0.13367467
H        0.41230048       8.00774449       8.12144168      -0.04341981       0.12088686      -0.04576741       0.31260687      -0.08834392      -0.12976806
H       13.99413551       9.27343079       5.68756440       0.39947018       0.26356477       0.05690058      -0.04350689       0.19841792      -0.14148743
H        4.49533274       2.67083172       9.64417197       0.32586595       0.19732358       0.16779348      -0.11741552      -0.06596389      -0.03804736
H       10.55167721      14.89133359       5.59201127      -0.25398904      -0.33179488       0.59136638       0.22955436      -0.10556767       0.06231393
H       37.39509364       9.56205562       9.39070405      -0.90187042      -0.10297209       0.04870919      -0.03172823       0.07560561      -0.03709832
H       15.32095414       8.53276808       6.46761289       0.01992740       0.03735399      -0.08298040       0.06113040       0.00698105      -0.07530940
C        3.60592586       4.45924157       8.97392827       0.05923925       0.45051934      -0.46186828       0.35505802       0.24022681       0.09251968
C       10.57058106      13.11679572       7.11800065       1.11479622      -0.67879061       0.58990603      -0.08259825      -0.27891105      -0.08832597
C        0.95790302       9.93200132       8.81164907      -0.11550906       0.72034006      -1.04337088      -0.28808535       0.07316475       0.08640706
C       13.46188534       7.52394776       6.61299349       0.11178194      -0.75675168       1.14703188       0.20756344       0.49327479       0.62876041
Pb      36.85302531       5.68711669       6.83747418      -0.03418091      -0.11236886      -0.06900268      -0.38699410      -0.74062684       1.43955546
Pb      16.04336790      12.85754929       9.32454021       0.03934191       0.04165278      -0.32302386       1.86975971       1.21256902       0.54186734
Pb       6.30355804      10.62525524       6.33214530      -0.14145428       0.05063832       0.04953213       0.29436985      -0.62640436       0.61935014
Pb       8.27740056       7.01063179       8.79092191      -0.42212314       0.10132326       0.30365975       0.98137534       0.06417642      -0.20384732
N        4.59573255       3.36706055       8.85934683       0.69173943      -1.33178880      -1.70405016      -0.42221887       0.63190959       0.09639493
N        9.85615623      14.40538902       6.43764511      -0.69922003       0.85379986      -0.51262680      -0.10034991       0.58046990       0.06603668
N        0.22701407       8.63403224       8.94516372       0.87374069       0.28363147      -0.13074957       0.17874856      -0.61139058      -0.03827629
N       14.30965338       8.72675636       6.53608336      -0.23580226       0.37937635       0.34431024      -0.07895015      -0.62086128      -0.39549115
I       16.45594890       7.09292006      13.84503929      -0.03732458      -0.08511952       0.08665359       0.03256542      -0.94305057       0.30338627
I       17.22389409      10.87672488      11.70331135      -0.10518371       0.10906910      -0.00941486       0.86086217      -0.22065876      -3.76246536
I        7.61487339      12.44069951      13.64128948      -0.09454044      -0.04608336       0.38126753       2.35556182      -0.90751856      -0.11980718
I        6.94739710       5.11208987      11.35719574       0.11722577       0.07714563      -0.20414072       1.21120442      -0.52302270      -0.20418116
I       14.97363071       3.49719769      11.51120027      -0.18401419      -0.06798508       0.15487838      -0.13984293       0.13344468       0.20345925
I       37.82554448      14.96363869      14.28482041      -0.02686398      -0.05017736       0.02861169       2.64828142       1.04915942       2.43108605
I        9.18441894       8.98472879      11.38359293       0.04501467      -0.13857309      -0.10557674      -0.90555361       0.15092632      -0.55975285
I        5.13081603       8.64097634      13.52568329       0.17329245      -0.16955674       0.42854106       0.60846491       0.93518160       1.15957479
I        1.29067195       6.29008792      11.35168596       0.29302561       0.36175950      -0.00145528       2.11619319       2.30142871      -1.30131911
I       13.27416432      11.14699003      13.94756362      -0.04392474      -0.12881821      -0.15807214       0.48497441       0.07942571       0.48963871
I        3.62498226      12.26431089      11.37724982      -0.48050253      -0.01098191      -0.02765887      -0.29911174      -0.49465209       1.70676838
I       11.06149155       5.46351423      13.58099046      -0.02020872      -0.06767963       0.12996639      -2.07855098       0.99129247      -0.22629860
H        4.30160823       5.38223278      12.95722431      -0.25864187      -0.09966276       0.27845135      -0.14140649      -0.10232057      -0.16092833
H       10.60499184      12.36370863      12.11143232      -0.36335791      -0.37723545       0.04906330       0.04994173      -0.11994275       0.05512141
H        2.08725694       9.72633102      13.85232562      -1.74517991       0.30844241      -0.23562185      -0.11267997      -0.26384237       0.03075717
H       14.14359662       7.00028923      12.26622638      -0.09246408      -0.19655291      -0.65030928       0.07389014      -0.01447541       0.16428252
H        2.76350713       4.13616132      13.16899227      -0.17268780      -0.15274980      -0.24813555       0.11460232       0.02569093      -0.09077985
H       10.51809710      12.42193806      10.26961976      -0.32621779       0.35970266       0.61468768      -0.17023207       0.06397201       0.02388945
H        0.79027904      10.57554836      12.89016932       0.13437562       0.73798418      -0.18684047      -0.19320201       0.07186658       0.07590279
H       12.22106920       7.99919852      12.49130447       0.48640828       0.62589060      -0.54328940       0.11812304       0.15935589      -0.02324248
H        3.52968984       4.92497086      14.74270563       0.33096145       0.30676666       0.30382569      -0.21255518       0.03277749      -0.00928555
H       11.77181316      13.30541271      11.20135867      -0.88986731       0.00560458      -0.10043940      -0.08842954       0.00346839       0.22167374
H        0.79004582      10.58110167      14.70644316      -0.64225327      -0.12355072      -0.04560113      -0.22063967      -0.03951168      -0.09391124
H       12.86427727       7.31367324      10.46039618       0.11309293      -0.71226819      -0.87868737       0.09327348       0.12723614      -0.02674878
H        4.37564804       2.74808183      14.43193327       0.51380411       0.06927681      -0.14091458      -0.02191105       0.07605680      -0.06303808
H        9.83969226      14.88228605      10.51801028       0.01526351      -1.00475834       1.33747812      -0.09323911       0.01366058       0.25984131
H        0.35633338       8.16776156      14.42402466      -0.22891951      -0.60046553       0.19774438       0.14353582       0.01655134       0.01140428
H       14.49722711       9.47207594      12.09459245      -0.68004208       0.76922508       1.42129778       0.00183819       0.03061729       0.02182548
H        5.76248580       3.76471166      13.94047661      -0.98721454      -0.29837364       0.18327458      -0.07953185       0.10316181      -0.13009378
H        9.94642904      14.74309367      12.23533057       0.32973753      -0.22849017      -0.35974765       0.09925551      -0.03455633       0.15444849
H        0.54781244       8.27554903      12.73770639      -0.35479790      -0.12328324       0.56655702      -0.07024914       0.01863561      -0.07928240
H       13.95606524       9.45158488      10.45004443       0.06386571      -0.45006875       0.71840522       0.00452846       0.14514050       0.18265865
H        4.81445162       2.86513314      12.80330704      -0.13416331      -0.01161037      -0.41134667      -0.01088109       0.15753481      -0.10454461
H        8.79102516      13.84096799      11.42863306       0.74079100       0.27557269      -0.06678259       0.12658235       0.05056293       0.13717746
H       37.29637224       9.66421065      13.86165161       0.27230344       0.12830693      -0.00675045       0.08582653       0.11834299       0.00196422
H       15.26316540       8.44681396      10.96762003       0.09410507      -0.12916949      -0.19867501       0.00103997      -0.09513975      -0.01334945
C        3.76981394       4.54742172      13.62586458       0.22282533       0.15861828      -0.66720445      -0.30404664       0.28514013      -0.30951632
C       10.69461189      12.98026506      11.21670810       1.63950801       0.57082882      -0.34548396       1.13271574      -0.24041195       0.48943481
C        0.96893204      10.01138084      13.79144097       2.26480372      -0.31734679      -0.15212832       0.23308783      -0.18182442       0.16450044
C       13.30129246       7.73303818      11.58659351      -0.38683618      -0.54251322       2.46946045       0.57180080       0.28558196       0.25731269
Pb      36.83493603       5.56202725      11.69404767      -0.00843587      -0.12596842       0.05149779      -0.35072432       0.43643030      -1.42036686
Pb      15.94428096      12.72647689      14.09485796      -0.17373707       0.19479890       0.20040961      -0.41737568       1.08911793      -1.79519031
Pb       6.07483522      10.55535117      11.26409996       0.39871629       0.00974843       0.02727283       1.07677219      -1.34286567       1.03218400
Pb       8.29382217       6.91696907      13.61671837      -0.34313843       0.05566695      -0.06332400       1.37057880      -2.04888493       0.20641596
N        4.75881850       3.43609914      13.68922242       0.55526973       0.01769558       0.85410078      -0.64378670       0.39569440       0.28090108
N        9.79611790      14.17064529      11.36271174      -1.13228477       0.34941607      -1.19166551       0.16208890      -0.24121488       0.42316987
N        0.16626959       8.77744488      13.61334687       0.43074281       0.10913560      -0.12001288       0.33271192      -0.03358740      -0.64585372
N       14.29037381       8.82362668      11.27700727       0.26197956       0.69217634      -2.15080035       0.44534776      -0.13474827      -0.10523193
I       16.33668377       6.93937718      18.95585640      -0.03392294       0.11533986      -0.11633446       0.99318901      -0.16765132      -0.01755088
I       17.05554957      11.01982869      16.52044016       0.10166169      -0.19901670      -0.11743775       0.68448657       2.76973687       1.05310528
I        7.20992527      12.38324162      18.73693480       0.17018586       0.12994609      -0.37024172       1.94613324      -0.32991217      -0.44481041
I        6.89360472       5.10556829      16.20954497       0.00108118       0.02961544      -0.04612513      -0.40513432      -0.38248056      -0.42198172
I       14.80331048       3.50117832      16.65124303       0.21177612      -0.16372880      -0.25061213       1.97444511      -0.66134997       0.11164104
I       -0.19701855      14.18496698      18.57075852      -0.21635023       0.00542216       0.07966920      -1.92830957       1.23001734       0.94681912
I        9.08373524       8.87520791      16.12605168       0.17536328       0.11825320       0.09163473       0.22998046      -0.08315452       0.87214804
I        5.09136353       8.67912017      18.68659615       0.07149236      -0.10764516      -0.36525274      -2.07541142       0.25663802       0.78180911
I        1.22309109       6.58504181      16.00483901       0.10339335      -0.04931425       0.19378626      -0.97797754       0.00441817       0.29008564
I       13.34445611      11.13544642      18.60272652      -0.18786634      -0.03949032       0.09370656       0.10360234      -0.70186695       0.38994515
I        3.47900369      12.20746577      16.07549070       0.04390177      -0.02010629       0.02833998      -1.59897731       1.81816906      -1.54302392
I       10.76384695       5.39848078      18.66325990       0.19011439      -0.03608450       0.03396474      -1.44294195      -0.13253948       0.11221981
H        2.52130271       3.98400533      18.56122745      -0.35586408      -0.07171727      -0.08494292       0.12736018       0.04239082       0.09189079
H        9.88527368      12.82124713      17.89200555      -0.21005076      -0.18709960      -0.51126778       0.08804550       0.02562921      -0.07077207
H        0.60848159      10.33332505      17.52739526       0.02036743      -0.17555778       0.75503113       0.04821073      -0.01249810       0.03827429
H       13.55830191       6.88600818      15.47040127       0.01337743      -0.29252910      -0.34220206      -0.11242409       0.02016104       0.09548151
H        3.71310630       4.94984369       0.26301249       0.22056086       0.07618678      -0.03482015       0.06175091      -0.03429209      -0.07561180
H       10.61019061      12.24471316      16.05637693      -0.41301231      -0.24413032      -0.03416812       0.29647407       0.00183054       0.06004130
H        0.62341777      10.61040131      19.36145609      -0.08448410      -0.18410064      -0.18198065      -0.03133477       0.00112860      -0.05378647
H       13.58360052       6.88030241      17.26963853      -0.08678119       0.67837743      -0.83039171      -0.15325873      -0.01816990      -0.09596798
H        3.73202932       5.20567700      17.92281315      -0.07646303      -0.19870935       0.39861173       0.06353638       0.05503160       0.00526834
H       11.60610156      13.19199066      17.15523359      -0.39003526       0.51567534       0.01770177       0.02666828      -0.10850022       0.02827892
H        1.92432467       9.68412578      18.54462109       0.72901887      -0.14870739       0.16641447      -0.12198948       0.11167249      -0.39027247
H       12.34268904       7.83709569      16.36113378      -0.39893827      -0.07905478      -0.00415972       0.07695702      -0.00878028       0.20636924
H        5.50301363       3.65714798      18.47071843      -0.58265357      -0.09428259       0.49978582      -0.10359937      -0.03590701       0.02147986
H        9.57795920      15.09202693      17.01482986      -0.13018545      -0.33105411      -0.46919276       0.10142638      -0.05639098      -0.08473427
H        0.67910840       8.13101113       0.03843926      -0.28154174      -0.36959749       0.40857649      -0.09218815      -0.15575467      -0.11463252
H       14.05601913       9.34721952      17.09220180       0.19306281      -0.21500771      -0.33923973       0.07413591      -0.24873824       0.05405830
H        4.36717615       2.69117602      17.71774067      -0.13139128       1.06445763       1.06311594       0.03745301      -0.14546140       0.01907192
H        8.70835112      14.25109854      15.62326627       0.96153900       0.25392741       0.12889534       0.01054048      -0.12982193      -0.13367467
H        0.32225209       7.97543090      17.85570833      -0.04341981       0.12088686      -0.04576741       0.31260687      -0.08834392      -0.12976806
H       13.90408712       9.24111720      15.42183105       0.39947018       0.26356477       0.05690058      -0.04350689       0.19841792      -0.14148743
H        4.40528435       2.63851813      19.37843862       0.32586595       0.19732358       0.16779348      -0.11741552      -0.06596389      -0.03804736
H       10.46162882      14.85902000      15.32627792      -0.25398904      -0.33179488       0.59136638       0.22955436      -0.10556767       0.06231393
H       37.30504525       9.52974204      19.12497070      -0.90187042      -0.10297209       0.04870919      -0.03172823       0.07560561      -0.03709832
H       15.23090575       8.50045449      16.20187954       0.01992740       0.03735399      -0.08298040       0.06113040       0.00698105      -0.07530940
C        3.51587747       4.42692798      18.70819492       0.05923925       0.45051934      -0.46186828       0.35505802       0.24022681       0.09251968
C       10.48053267      13.08448213      16.85226730       1.11479622      -0.67879061       0.58990603      -0.08259825      -0.27891105      -0.08832597
C        0.86785463       9.89968773      18.54591572      -0.11550906       0.72034006      -1.04337088      -0.28808535       0.07316475       0.08640706
C       13.37183695       7.49163417      16.34726014       0.11178194      -0.75675168       1.14703188       0.20756344       0.49327479       0.62876041
Pb      36.76297692       5.65480311      16.57174083      -0.03418091      -0.11236886      -0.06900268      -0.38699410      -0.74062684       1.43955546
Pb      15.95331951      12.82523570      19.05880686       0.03934191       0.04165278      -0.32302386       1.86975971       1.21256902       0.54186734
Pb       6.21350965      10.59294165      16.06641195      -0.14145428       0.05063832       0.04953213       0.29436985      -0.62640436       0.61935014
Pb       8.18735217       6.97831820      18.52518856      -0.42212314       0.10132326       0.30365975       0.98137534       0.06417642      -0.20384732
N        4.50568416       3.33474696      18.59361348       0.69173943      -1.33178880      -1.70405016      -0.42221887       0.63190959       0.09639493
N        9.76610784      14.37307543      16.17191176      -0.69922003       0.85379986      -0.51262680      -0.10034991       0.58046990       0.06603668