768
Lattice="31.69945668710882 -0.05318654843770361 -0.36351599514761185 0.040002385871756 30.414649832433703 0.5117498230958147 0.4104475048070117 -0.22194636651643873 17.44856456336718" Properties=species:S:1:pos:R:3:forces:R:3:momenta:R:3 energy=-3327.201358693176 stress="0.0 0.0 0.0 0.0 0.0 0.0 0.0 0.0 0.0" pbc="T T T"
I        6.53601127       2.61332656       2.84752560      -0.24013550       0.12528547       0.21296848       0.44068428      -0.16262690      -0.53154255
I        1.24314740       7.95228899       1.48319377      -0.11346782      -0.04376749       0.05354161      -1.92123835      -0.73605139       2.65395391
I        6.49121937       2.77119689       7.24144839       0.20360784       0.13474997      -0.03407239      -0.73006459      -1.61596225      -0.68012524
I        1.07523863       7.37816941       5.91214035       0.05693169       0.17803703       0.02947216       0.96967237       1.17086670       1.32795016
I        5.08842237       6.57262760       3.84651256      -0.03897634      -0.08655985       0.07010438      -1.23633727       0.85380577      -0.29531866
I        2.76045924       4.03752414       9.52909435       0.15319998      -0.09982391      -0.03477401      -0.83954995       0.36348189       0.14018408
H        3.44039198       4.03729047       5.36946317       0.87399312       0.75806871       0.15951513       0.03744499       0.03771389       0.12019519
H        5.82676380       7.63494214      16.84780945      -0.20173662       0.06212522       0.05274799       0.16334197       0.04389514      -0.09356206
H        1.87684907       3.52863552       6.12728824       0.61769216       0.53357818      -1.17162035      -0.16062472      -0.00098859      -0.13179254
H        6.97866345       6.54614167      15.80416900       0.09088094       0.10423850      -0.02164594       0.01539302       0.13481534      -0.08873404
H        2.64700109       2.58516809       4.83054954      -0.00004551      -0.43370118      -0.46684977       0.14908015       0.04986835      -0.18563581
H        5.32769703       5.96070118      16.14906086      -0.56928194       0.10213199       0.17317188       0.05612279      -0.07952194       0.07210886
H        2.16782863       4.25954264       3.15106893       0.69053304       0.40655065      -0.83163200      -0.14623781      -0.03553531      -0.13925865
H        7.70501537       6.22202326      18.11560336      -0.58991721       0.27850444      -0.23446306       0.22745471      -0.05966884       0.05553294
H        1.62698916       5.39380639       4.37506344      -0.22816501       0.24718778       0.04947694       0.06699532      -0.11045830      -0.11006995
H        6.82514444       4.83530595      17.72592367       0.21642360      -0.31353145      -0.59459765      -0.07560891       0.17059400       0.22069932
H        0.79526481       3.88150587       3.98629717       0.21629731       0.59030207       0.19443063       0.15357563      -0.25613031       0.14781523
H        6.18545540       5.96484833      18.72655392      -1.07546302       0.35814636       1.23122710      -0.16132164       0.03694094      -0.07652972
C        2.49099642       3.61101165       5.17241698      -1.51865609      -0.57485023       1.13753475      -1.22170573       0.38740544      -0.65478364
C        6.16002605       6.57382844      16.59352363       0.21738712       0.22278202      -0.30483014      -0.09314511      -0.02782371      -0.01787422
Pb       5.09354040      16.36084148       9.61740313       0.09913312       0.23357071      -0.10403836       0.13713000       1.62827348       2.75836545
Pb       1.02862150      16.72564623      10.08427042      -0.32795943      -0.14018138      -0.07151865      -1.01902797      -0.34576389      -0.93258474
N        1.73356547       4.38094615       4.10625143      -0.73713957      -1.57877665       0.80677245       1.35905615      -0.00673175      -0.22996303
N        6.72427101       5.91051884      17.85876680       1.59216995      -0.98548092      -0.23893986       0.11378818       1.00144544       0.03093876
I        4.92793536      10.66180959       6.12669134       0.04488141      -0.15879003      -0.15434459       0.60400331      -1.12377761      -0.90392632
I        2.93012697      15.41368244       7.59242111      -0.12115446      -0.02349703       0.14657546       1.66239469      -0.09458174       1.25969228
I        5.38095953      10.29039366       1.59884652      -0.41830799      -0.12988297       0.24231778      -1.35757837       0.38597003      -1.69418912
I        2.77515380      15.64961997       3.11010645      -0.08640947      -0.14016139       0.34316535      -0.93778979      -0.37854728       0.51734573
I        6.88317668      14.14251281       1.21720920       0.08678601       0.23857521      -0.43692039       0.41481664       0.27819929       3.49662593
I        1.42966700      11.91253795       4.20856794      -0.24217375      -0.32451329      -0.14388780       1.56049743       1.73039630      -0.02859904
H        1.29709555      10.65242515       8.68375123       0.00669130       0.20133304       0.12017020      -0.13798718       0.01564449      -0.22191005
H        5.51156283      14.40053817       5.77169791       0.68254930      -0.14227819      -1.18895365       0.03467802      -0.02459186       0.13468240
H        0.41540100      12.26077727       8.45553276       0.80122659       0.04948219       0.25045347      -0.07774341       0.00978094       0.08123742
H        7.28560356      14.26069894       5.07846577      -0.82106595      -0.34865229      -0.10600759      -0.03337243       0.00942680      -0.08741571
H        1.93375071      11.83546297       7.48676684      -0.31206263       0.28094927       0.41008919       0.01615571      -0.08998996      -0.11087524
H        6.16390770      15.47445383       4.40359605      -0.51788725      -0.76003424       0.19763502      -0.00867468      -0.01761351      -0.07981471
H        3.15493096      11.74629829       9.59652692       1.59691259      -0.54070758       0.52485062      -0.06233323       0.12923459      -0.43620846
H        6.23041862      13.19047709       3.02216464       0.51688989      -0.04457124      -0.34028215      -0.06005069       0.21364126       0.15494935
H        1.92404792      12.35501710      10.57208434       0.15713124      -0.28319824      -0.76240603       0.12515877      -0.03699614      -0.04177490
H        4.73499453      13.80754077       3.43340150       0.13919523       0.09591860       0.00946683       0.05912506      -0.23941627      -0.09979425
H        2.55535105      13.28808958       9.29364147       0.14466957       0.74349543      -0.10608600       0.03049507      -0.21885125       0.03460990
H        5.31216828      12.54278883       4.39091342       0.54003640       0.12014804      -0.31734254      -0.05123353       0.00417169       0.05025969
C        1.43335408      11.77617589       8.49892713      -1.12891298      -1.79149816      -1.45842725      -0.70361414      -0.01096742       0.30799934
C        6.16284163      14.42533255       4.83143064       0.43523722       0.97203012       0.68526036       0.29163839       0.09281189       0.17519018
Pb       3.06939558       9.12655686       3.91354460       0.53819263       0.09592570      -0.10556875      -0.40690237       2.21922127      -1.15125117
Pb       7.14819826       9.07814488       4.09111475      -0.67675449       0.11006720       0.20660920       2.23070309      -2.40615365      -2.94548268
N        2.30497858      12.31947450       9.55718495      -1.12598650       1.13438185       0.81940716      -0.33155704      -0.74789997      -0.67027061
N        5.62745499      13.41040085       3.84001329      -1.12793362       0.07198444       1.53887798       0.14717688      -0.59582105      -0.31949104
I       14.29488252       2.83440362       2.61303043       0.09471824       0.27032298       0.51899174      -0.62727448      -3.40076817       1.79984045
I        8.97082417       7.81229171       1.84440360       0.14838133      -0.02494516      -0.27934238      -2.83947713      -1.86168667      -0.68419262
I       14.66343916       2.90290073       6.88918169       0.01074444       0.04826790       0.13465814      -0.32853051       0.35385064       0.18950351
I        8.75197077       7.30985453       6.22071507       0.24522896       0.21236793       0.00651260      -0.74471739       0.26908381      -2.68653569
I       12.72504740       6.55044475       3.99562837       0.29470990      -0.03352311      -0.20940324       0.15195405      -0.84116127       0.78617488
I       10.92751653       4.07165978       9.14132885       0.13495864      -0.19759154       0.02853838      -2.65399908       1.39052937       2.97935439
H       11.10253927       4.54105649       4.99517752       0.77674085      -0.02426874       0.07136679      -0.13003227      -0.00193559      -0.07895871
H       13.95779453       6.54595601      15.61834138      -0.05118594      -0.42982099       0.92001049       0.25030001       0.16149578      -0.07808444
H        9.67935639       3.82227798       5.89187460       0.57635702       0.24461186      -0.69872831       0.19214443       0.01989153      -0.04909633
H       12.51364227       5.89245475      16.64697828       0.38008999       0.09309751      -0.58992884       0.14431178       0.08060582       0.01379605
H       10.27968895       2.92693312       4.45059915       0.38122998       0.77951118       0.21772808      -0.03078575      -0.03234551       0.36119606
H       13.15308022       7.51882357      17.00347062       0.74404790      -0.61635889      -0.40213043       0.01852505      -0.26170485      -0.03846552
H        8.33195231       4.24865010       3.76278015       0.94094580      -0.17217095       0.14133716      -0.11547423      -0.22618004       0.14979809
H       14.49865588       4.82817738      17.34366968       0.30839506      -0.41397605       0.13549031       0.14431344       0.03654546       0.06045038
H        9.68618244       5.02172996       3.10320303       0.24693300      -0.26058078      -0.43182977      -0.30640384       0.03099854      -0.04467970
H       13.85032164       5.66385494      18.68510915      -0.06594888       0.39019547      -0.82058068       0.05304923       0.15803919       0.25674223
H        8.90913882       5.64523195       4.42423814       0.31323834       0.41784933       0.62983120      -0.15577629      -0.02463049      -0.02527541
H       15.18204138       6.32117948      17.87621320      -0.10593742      -0.42398273       0.05566796       0.14067217       0.08048337      -0.12347537
C       10.19443778       3.95306799       4.89525358      -2.28122007      -0.68377065       0.13429317       0.39791892      -0.04580513       0.76209314
C       13.49095684       6.47885211      16.64038676      -2.14781999       0.74207054       0.86243815       0.28024822       0.54863748       0.81364300
Pb      12.89644824      16.62424428       9.54614629       0.07199072      -0.16472564       0.13487260      -0.08371875      -3.81051883      -0.88797316
Pb       8.93032291      16.76189848       9.43398732       0.12970775      -0.11762691       0.02670858       3.74190692       1.22219918      -2.96454391
N        9.24554405       4.75124343       3.99974259      -1.00957095      -0.59340951       0.05232490       0.32987255      -0.47438163       0.08818009
N       14.28315249       5.77482841      17.72231819       0.91662973       0.71078733       0.09304450       0.29138982      -0.62935958       0.72893724
I       13.00899059      10.49499218       6.04344584      -0.13892435       0.08999035       0.08230606      -1.18578430       2.42737231      -0.74437575
I       11.03607761      15.43766823       7.28147678       0.01722366      -0.09640403      -0.02402318      -1.24806441      -2.90257333       0.03609164
I       12.63379964      10.23773738       1.74694069      -0.11080746       0.10053117      -0.18889416       2.34658818       0.29637241       0.99095790
I       10.77102628      15.59472763       3.37930316      -0.10462411       0.00628535      -0.06283975      -2.01476213       0.17511830      -0.74082490
I       14.86546036      14.10264820       1.03541769      -0.17448886       0.02013218      -0.11306458      -0.62110620       2.43603239       0.23311328
I        8.91009318      11.70677257       4.18842282       0.14983910      -0.00562370       0.00181209      -0.26330386      -0.97209528      -1.20338043
H        9.24612043      10.34805356       8.89178519      -0.05362751      -0.34140319      -0.66798193       0.09985665       0.06135366      -0.05908566
H       13.46964489      14.60938918       6.03381429      -0.26218093      -0.01297331       0.39566722       0.11046578       0.05690269      -0.00822941
H        8.36273560      11.61230225       8.03125542      -1.16749036       0.33967222      -0.97504668      -0.16508401       0.06402024       0.26627890
H       15.08838704      13.98036857       5.53452916       0.45997695       0.05993552      -0.00428771      -0.14745818      -0.34322164      -0.03028197
H        9.88082624      10.93565942       7.18782975      -0.47439484      -0.08702552       0.18558557       0.19316429      -0.21297323      -0.04140364
H       14.33757403      15.49524320       4.69504898       0.16304080      -1.51407201       0.92973880      -0.00440513       0.31849556      -0.08727404
H       11.01892190      11.77731878       9.21891907      -0.79987331       0.24614465       0.17750802      -0.05090143       0.25854976      -0.09353302
H       14.08497746      13.53116258       3.25006165      -0.28726420      -0.09339928       0.79000457       0.12345314       0.47343475      -0.17843694
H        9.56170014      12.53361232       9.68203663      -0.47827723       0.07148414       1.49373924       0.06927954      -0.05698675       0.05508465
H       12.63636969      14.02997627       3.87445822      -1.31953570       0.75298652      -0.42975082      -0.08490641      -0.05120629       0.29564853
H       10.38487719      13.07696090       8.39116555      -0.14974920       0.65329665      -0.61035100      -0.16311158      -0.06790321       0.11321845
H       13.24276115      12.67298276       4.57844789       0.45210896       0.36880410      -0.57829170      -0.37019630       0.02608652       0.00730346
C        9.32991586      11.19370471       8.12099929       1.04515409      -0.40754211       0.89013755       0.18305796       0.04380458       0.07066999
C       14.17661314      14.47992428       5.21157475      -0.52202586       1.15255319      -2.11293824       0.06601988      -0.43734868      -0.26421294
Pb      10.83218562       8.94346935       4.02663817       0.26089755       0.20687952       0.35742247       0.75673552      -2.22786541      -3.40456756
Pb      14.83606267       9.25435883       3.76901223       0.14912218      -0.21094068       0.01121125       1.87780127      -2.21187787       3.18209291
N       10.10216360      12.21633423       8.88983112       2.23017332      -0.53086161      -0.37436530       0.36476097       0.08695050       0.83130541
N       13.50128047      13.60772774       4.14075447       1.48769742      -0.85052229       1.15049073      -0.06335403       0.72869814       0.41485338
I        6.80540133       2.89119018      11.76612969       0.00321762      -0.21439059      -0.34178809      -1.29301991      -1.43085195       0.85784992
I        1.48572002       7.63645147      10.46179242       0.00167725       0.03617312      -0.27640248      -3.13179183       1.13610225      -0.47582917
I        7.06233611       2.67686328      16.08612999      -0.22973076       0.15372216      -0.32963962       1.00029405       0.05445647       2.69831228
I        1.26286702       7.38832165      14.77581104       0.31805661       0.21224606      -0.05993783       0.90816546       0.94238955      -2.55625502
I        5.37066855       6.42806862      12.46424780       0.02363103      -0.33719023       0.14044371      -0.17907073       1.34807978       1.80308893
I        2.86120195       4.10176113       0.78529827      -0.13728460      -0.07589620      -0.15740106      -0.08126652       4.53725650       1.01138969
H        3.14313097       4.06816807      14.20428789       0.16714697      -0.26471702      -0.73037550       0.02964340       0.23417934       0.01760425
H        5.51923536       7.96209889       8.53274788       0.01452278       1.51933143       0.46050956      -0.21601110      -0.15047334      -0.04864336
H        1.74798705       3.24211740      14.73301964      -0.91444496       0.11316651      -0.36513286      -0.00898159       0.11952633      -0.06374771
H        5.85458813       6.83003725       7.07560432      -0.34994650       0.15887068       0.51707497      -0.06601697       0.10175370       0.04680738
H        2.41291779       2.72347987      13.11599760       0.38810729      -0.77844163      -0.12672609      -0.17592661      -0.01591841      -0.15847830
H        4.31876678       6.62389302       8.20051800       1.19187471       0.16505822       0.30959781      -0.00378558      -0.14349488      -0.00828834
H        1.98988627       4.63957518      12.02245825      -0.56788868       0.02162886       0.17606900       0.09249875       0.14632544      -0.09994873
H        7.26975189       6.40772760       9.17874706       0.16266690       0.20632342      -0.30399320       0.24090804       0.05079355       0.10931692
H        1.51648475       5.55065088      13.43201208       0.15107186       0.34130432       0.11347678       0.12002123      -0.10399823       0.01936942
H        6.14755085       5.13358017       8.73746367       0.86257374      -1.24195331      -0.78412234       0.03986295      -0.05807618       0.20267664
H        0.44599353       4.38760666      12.84634097       0.58488880      -0.26857149      -0.38468684      -0.11277167      -0.14522395       0.38094708
H        5.87588697       6.09074257      10.02631841      -0.44425123       0.25417336       0.75336906       0.00245502      -0.14025312       0.25691832
C        2.23350179       3.56288806      13.78679220       0.28567348       1.19207197       0.38752430       1.01831949      -0.03912933       1.10951274
C        5.44808514       6.95850308       8.15990392      -0.79764058      -1.18776999      -1.44884811      -0.02665549      -0.74090611      -0.29167892
Pb       4.82985850      16.79627201       1.04808455       0.08342523      -0.10646933      -0.12711396      -1.38412668      -1.34778064      -1.31627215
Pb       0.79752433      17.13448233       0.96431125       0.33761106      -0.45105575      -0.19199882      -0.84587230      -5.56277007      -0.26849864
N        1.49816998       4.60137121      12.95613370       0.00137058      -0.47010410       0.69050463       0.14810942       0.58666746       0.03730490
N        6.26135129       6.11430275       9.05748831      -0.80011803      -0.02286210       0.38765548      -0.04576739       0.37135810       0.31809435
I        5.49896542      10.28460919      14.81680828      -0.04001802       0.17061089      -0.05393614       2.50726768      -1.87334145      -1.58398630
I        3.44599859      15.36185592      16.22094511      -0.24436545      -0.16769073       0.20253436       1.61976544      -1.20786984      -0.58692197
I        5.29005989      10.23513285      10.28860129       0.14116461       0.08791279       0.13179640       0.73060065       1.58057498       0.76562809
I        3.26523362      15.26338609      11.90382330      -0.15485900      -0.12673821       0.29285466       2.80517615       0.17467438      -1.98041201
I        7.35678070      13.91051976       9.47551317      -0.33152410       0.12963982       0.05359522      -2.12240724       2.32684846       0.82827423
I        1.50776009      11.36776068      12.78151512      -0.02082532       0.46598629       0.05630532      -1.19500643       0.28590744      -1.77355036
H        1.46460850      10.31201108      17.55264042      -0.21250495       0.22201901       0.12222143       0.01395397       0.04032009       0.23785105
H        5.94721940      14.57572085      14.67520697      -0.40570873       0.04670507       0.20713802       0.16115417      -0.09674156      -0.06105935
H        0.98155326      12.04811860      16.94763599      -0.46107810      -0.21636132       0.30381805       0.17540891      -0.21256290       0.16655590
H        7.59036831      14.02168384      14.18318702      -0.49038388       0.29521344      -0.36895543      -0.11032265       0.00127921      -0.11633343
H        2.24742238      11.09536241      16.19856606       1.07420630      -0.10081572      -0.90733057       0.27256794      -0.16875840       0.11142534
H        6.72490756      15.39972861      13.22143413       0.01552987      -1.30105004       1.07011092       0.04298250       0.17413638       0.19360557
H        3.60783038      11.28460492      18.34394785      -0.24573085       0.47915176      -0.27199300      -0.16238633      -0.04237543       0.05380543
H        6.50225971      13.51403033      11.92333620       0.46071380       0.19405878      -0.58291580      -0.00900254       0.13143989      -0.09723548
H        2.29986746      12.22113352      18.98338644       0.41292506       0.02845554      -0.68492606       0.02845547       0.24265533       0.06354507
H        4.97267078      13.66020013      12.63819085      -0.11189338       0.16117002       0.20020412       0.09951255      -0.13053944      -0.12748765
H        3.15797185      12.82465014      17.62732208       0.37170393       1.09908325      -0.13561045       0.14061561       0.02643330       0.07216619
H        6.12440720      12.36159434      13.15678988      -0.14157405       2.23688631      -0.63197352      -0.08653559       0.20177286       0.16260234
C        1.80985739      11.30002375      17.15477541      -0.85548273      -0.34186791      -0.06143501       0.73856520       0.07315159       1.14941175
C        6.60170162      14.42088367      13.81962877       0.86759099       1.37225439      -1.18111204      -0.36919569       0.09768338       0.31439346
Pb       3.64773904       8.93696567      12.41969420      -0.49430797      -0.08523999       0.51029971      -0.22820112      -2.77658116       2.41816169
Pb       7.48616688       8.92721332      12.76087327      -0.27803439       0.17300305      -0.29661776       1.42869789      -0.36949995      -1.66794966
N        2.79261454      11.96844063      18.06629223       0.04479753      -0.97992198       1.51330985      -0.01266331      -0.39894793      -0.08967972
N        6.00413127      13.46800441      12.83256373      -0.03069889      -3.21886877       1.48659909       0.97110145       0.38955734       0.49496596
I       14.71556802       2.86479400      11.38246640      -0.14402949      -0.11948176      -0.02819674      -2.36508371       1.01236605      -1.05464418
I        9.07659530       7.73782427      10.21349748       0.38567450       0.02087788       0.27768566       2.54228426       1.44207500      -1.28300240
I       14.98173410       2.81472577      15.91411550       0.00533396      -0.20508096       0.12044195       2.31538349       1.20727621      -2.43765308
I        9.20526417       7.33893184      14.74749259       0.13524608       0.07111492       0.17666128      -0.41905660      -0.41034680       3.78959784
I       13.43224042       6.35732076      12.82828144      -0.33614914       0.09541813      -0.23824381      -1.14793933       3.45107650       0.47204142
I       10.09591765       4.08778062       0.71306684       0.69257290      -0.26411239      -0.19208130      -1.02895539      -1.50499006       3.44383497
H       11.28115570       4.32188557      13.84233478      -0.15856957       0.47271767       0.28572160      -0.12621606       0.13935460      -0.06765869
H       14.46199111       7.40702543       7.43140924      -0.44935855      -0.09694891       0.59738448      -0.15583257      -0.05070818      -0.04386674
H        9.60537582       4.09900541      14.60280276      -0.87918417       0.43427827       1.57070321       0.22466842       0.26573660      -0.09542876
H       12.77606411       6.19323968       7.40267487       0.74778806       0.46054259       0.50685978      -0.05705060      -0.03809056       0.30489802
H       10.26597027       2.88950438      13.51489325      -0.05157880       0.19240801      -0.16255974       0.12804045       0.20451506       0.22736586
H       13.05634772       7.71587831       8.87037678      -0.18612660      -1.35678176      -0.80633851       0.13272801       0.05281604       0.11344094
H        8.76144032       4.27193961      12.22506248      -0.91792149      -0.23034419       0.05820714      -0.08016633      -0.21554108       0.05470990
H       14.59497080       5.07797685       8.52252465       0.54123905      -0.55449713      -0.23573469      -0.07958543      -0.10201063       0.18966586
H       10.23360255       4.56246839      11.59639558       0.05447911       0.22766388       0.34745331      -0.16654494       0.11944216       0.04838639
H       13.67054617       5.56756750       9.83454393      -0.18671237      -0.00305773       0.29446444       0.07245060       0.03666164       0.08494397
H        9.42536286       5.78493649      12.64151340       0.11972715       0.32990017       0.42202205       0.06035496      -0.03404453      -0.07987134
H       15.11062482       6.45762866       9.53870600       0.18876902      -0.33801177      -0.19644395       0.20231898       0.14881694       0.07819458
C       10.21822852       4.02071185      13.74062039       1.12715270      -1.18183563      -1.82583485      -0.61426081       0.65501349      -0.23282597
C       13.55588383       6.87873710       8.11767819       0.63856610       0.45811168       0.58222225       0.04290795       0.31438042       0.85108256
Pb      12.73414509      16.64147593       1.05090232       0.02251356      -0.17563674      -0.04042954       1.50865498      -1.91849907      -0.12284171
Pb       8.82485576      16.83818228       1.11347804      -0.19649830      -0.27904583      -0.03317301       2.54465958      -0.23380279      -2.97983484
N        9.63336238       4.73328017      12.50545404       0.90437581      -0.44371324      -0.69685772      -0.23790070      -0.33572062      -0.25056810
N       14.31070168       5.91185436       9.07034193      -1.18672763       1.43737061      -0.66163038       0.01910287       0.18593095       1.29847770
I       13.31830598      10.04762788      14.83051031      -0.33892642       0.22622236       0.33306636       0.48376938       2.12564038       0.74260046
I       11.16877977      14.92033022      16.55704041      -0.05733192      -0.19678716      -0.29354306      -3.02653143       0.17363022      -0.28815575
I       12.92307457      10.39976905      10.42583734      -0.03385203      -0.05098704       0.06583719       0.52808869      -0.31098294      -2.10430813
I       10.95808451      15.15899809      11.65833878      -0.05618399       0.08870267       0.04083212      -1.33485977      -0.16074477       0.70757422
I       15.13816099      14.14431486       9.95067780      -0.19649370      -0.11813985      -0.22456216       4.50477724      -2.22313375      -1.63958794
I        9.22961661      11.59446695      12.61681026       0.21701914      -0.26442637       0.06203170      -0.68080922      -1.09817343      -0.28165694
H        8.87668419       9.92634249      17.37146040      -0.35184516       0.49653847      -0.23494042       0.13381739       0.27375347      -0.09455754
H       14.25122164      14.52532731      14.74549994       0.46686588       0.37995260       0.02565613      -0.06434048      -0.14209713       0.25582484
H        8.67448766      11.65974878      16.30524288      -0.80578861      -0.27165103       0.01661933       0.07525903       0.07291450      -0.19836688
H       15.67960365      13.64327714      13.83895798      -2.15540201       1.23920703      -0.46904215      -0.29082262      -0.16792478       0.10059687
H       10.33863631      10.62282647      16.23018929      -0.36251502       0.08857508       0.55148652       0.35786843      -0.24573119       0.25629248
H       14.81133820      15.13297734      13.07160686       0.06474459      -0.10195502      -0.06552301       0.01099336      -0.06098835       0.09904035
H       10.85038860      11.14973861      18.55770200       0.12204979      -0.08627977      -0.38372400       0.14599416      -0.05371163      -0.12242155
H       14.01943182      12.74727954      12.25592086      -0.12825925       0.46312495       0.39673999      -0.26773158      -0.06700119      -0.21293135
H        9.31573135      11.50964188      19.00353550      -0.07570920       0.59757714      -0.20864723       0.08223012       0.14692553      -0.20106083
H       12.69850693      13.74179233      12.77879984       1.43376699      -0.30417629       0.89086149       0.14125277       0.22176003      -0.14830116
H       10.25449259      12.59547162      17.91359494      -0.07249283       0.28744719       0.18584228      -0.09935163       0.21560903      -0.03217404
H       13.34360695      12.42015234      13.75931468      -0.11304254       0.09696337       0.61851847      -0.01951882       0.17786929       0.12832777
C        9.38693529      10.88505671      16.93147264       1.55729559      -0.20191501      -0.40136290       0.87460772      -0.03569276       0.02014362
C       14.66511262      14.24277863      13.72680249       1.33617972      -1.13823067       1.58274367      -1.85945441      -0.61496786      -0.58746419
Pb      11.26807994       8.91804711      12.66414010       0.04561252       0.10779743      -0.28161861       0.47355879       0.68743919      -0.52357511
Pb      15.17606632       8.90627031      12.65542349       0.61899287       0.37800605      -0.06716396      -0.34733998      -1.08027580      -0.95314441