768
Lattice="38.16606883306081 0.7708101007676014 0.3666927628512125 -0.3296249581406084 22.360322942442707 0.08526197331993467 -0.1800967783537251 -0.06462717078727989 19.468533293292147" Properties=species:S:1:pos:R:3:forces:R:3:momenta:R:3 energy=-3338.9867125916544 stress="0.0 0.0 0.0 0.0 0.0 0.0 0.0 0.0 0.0" pbc="T T T"
I       17.33187936       6.43997359       4.25559970       0.07037165       0.08138629      -0.13155786      -0.74298911      -0.41330896      -1.60172876
I       17.75104035      10.39957837       1.91891420       0.07326157       0.03218517      -0.05555135       1.32022975       2.44209724      -0.01750857
I        8.42011324      12.05754596       3.97882607       0.07218544       0.01871373       0.18715123       1.02225838      -1.03446521      -0.59355013
I        7.85338415       4.63105171       1.65901328       0.00100063       0.07440936       0.00289461      -0.44472869       0.62299155       0.98492601
I       15.85216912       3.00097963       1.72454539       0.02597363      -0.09229511       0.18081980       0.15350500       0.05205768      -0.56442941
I        0.58960698      13.84742051       4.02205951      -0.24097048      -0.15498392       0.06660937      -1.13794503      -0.59933050      -0.14959168
I       10.09001890       8.52067161       1.68916159       0.15500987      -0.18585742      -0.02647298      -1.88586943      -0.42427160      -1.22907559
I        6.14336510       8.20987524       4.05950395       0.12761336      -0.14073628       0.01125529       0.22288792       0.47258351      -0.94147106
I        2.25633576       6.13447864       1.60177490       0.03572406      -0.05456615      -0.06950471      -0.89523493       1.09429774       0.46827177
I       14.03637334      10.40519208       4.34626636      -0.00953022       0.31892453      -0.16919578       0.86037824      -1.61873933      -3.29930540
I        4.56738165      11.83315268       1.79319445       0.01810546       0.00966229      -0.09825065      -1.09760626       0.89473732      -2.35891578
I       11.80801185       4.69906336       4.40491602      -0.07146193       0.08412762      -0.15366178       1.44432774      -2.10944161       1.72298282
H        5.07730585       4.77118330       3.39305739       0.23357481      -0.03260365       0.44665589      -0.12530227       0.06192634      -0.06761206
H       11.47037114      11.85051325       2.17778237       0.12843973      -0.51120583       0.04506693      -0.15960518      -0.19273005      -0.14501844
H        2.86307053       9.26357019       3.81701727       0.68799241      -0.43319010       0.00754366       0.05959837      -0.16831092       0.06740108
H       14.62172654       6.35125611       2.85389729      -0.29610531       0.13330354      -0.33994158      -0.05862656      -0.15342318      -0.16286722
H        3.77497771       3.46665696       3.76215785      -0.47210031       0.23152878       0.14528607      -0.11869218      -0.00842338      -0.16207328
H       11.52001647      12.07306846       0.37179840       0.42406532       0.05139579       0.32983099       0.06243057       0.15307783      -0.13214444
H        1.64837800      10.05049237       2.82574307      -0.08709247      -0.00893381       0.48275123       0.21663014      -0.05877943       0.02698697
H       13.03441809       6.98747599       2.02038279       0.69401773      -0.13279743       0.21185063      -0.09458895       0.19780205       0.09701622
H        4.52841106       4.47700780       5.28474898      -0.04779958      -0.72156402      -1.57699109       0.14405876      -0.02964132      -0.01328526
H       12.68193677      12.98440470       1.52889355       0.25332380       0.13663175      -0.43186572       0.10335957      -0.08310428      -0.02717552
H        1.68135147      10.22636787       4.60837871      -0.63452140       0.76298313       1.35119813       0.14273320      -0.09199007      -0.02946057
H       14.38078211       6.25536026       1.02514828      -0.22295617       0.51138315       1.00796277      -0.08936659       0.13378422       0.08543576
H        5.50877213       2.25952489       5.01340128       0.24911408      -0.09488621       0.38348126       0.23046739      -0.16623077       0.00248705
H       10.56481097      14.32366973       0.75909037       0.38147306       0.13775115      -0.10368319       0.01847301       0.11889082       0.05895767
H        1.37634712       7.63414006       4.56913799       0.10728808      -0.30926370       0.66180361      -0.07762623      -0.14628967       0.02336979
H       14.63396563       8.83192027       2.64652129       0.32239030      -0.68885992      -1.07763391      -0.18881496      -0.03778763      -0.08225518
H        6.72688569       3.18024976       4.21019520       0.00351222       0.02971555       0.31097011       0.01580365       0.15353738      -0.24925853
H       10.87508356      14.15871470       2.43759646       0.04474640       0.03691988      -0.42923363       0.00646489      -0.02620765       0.10892469
H        0.96912073       7.84098440       2.91821310      -0.05560040       0.15681612       0.35207162       0.07477072       0.12772026      -0.04433701
H       14.48478965       8.74332543       0.95854318       0.11882734       0.21128538      -0.31860532      -0.00831363       0.03353854      -0.02853720
H        5.57801556       2.27464567       3.40870033       0.12354588      -0.12859823      -0.38149304      -0.06066858       0.17578730      -0.00719763
H        9.68988996      13.27429687       1.74348125      -0.63706170      -0.53939950      -0.11737701      -0.00353814      -0.09116089       0.27615177
H       -0.05168635       8.54243456       4.19830603       0.07096819       0.04249277      -0.14421369      -0.20161343       0.06168041       0.17214798
H       15.85954357       8.08605811       1.71180259       0.19400944       0.09446262      -0.09708901      -0.07843494       0.08009515       0.15648360
C        4.73564030       4.01269986       4.15610131       0.13987572       0.28418390       1.02463785      -0.22440729      -0.52817445       0.31261727
C       11.68454912      12.55181854       1.36299169      -0.82102476      -0.53343741       0.09124663       0.35716864       0.09107359       0.63586764
C        1.83192799       9.55997418       3.81057361      -0.18376928      -0.58065259      -2.00512791       0.10558915      -0.12466025       0.43931217
C       14.16500175       6.86908268       1.95090372      -0.55378297      -1.15089825      -0.94613854      -0.39391185       0.20105853      -0.41963665
Pb      37.67617068       5.35976143       1.94025438      -0.03893713      -0.11494999       0.17731241       0.78000146       1.30915875       2.43175164
Pb      16.56574995      12.43002821       4.14844408      -0.07795450      -0.08622398      -0.03413750       3.12232778       1.73098497      -2.19173582
Pb       7.24040182      10.15820384       1.71587120      -0.17027586       0.09287475       0.05290214       1.66113464       0.55932829       0.42971991
Pb       9.20243569       6.46722806       4.18102603      -0.05247956       0.24240994       0.02737403       0.65633329      -0.27682285      -0.90069575
N        5.73898351       2.89523487       4.22404099      -0.30656544       0.32742948      -0.56328826       0.30111279      -0.46689699      -0.05048032
N       10.65104962      13.61121651       1.55437360       0.17418371       1.41211755       0.75512282       0.35377938      -0.15679348      -0.43287913
N        0.96198026       8.33891220       3.87979218       0.15219995       0.63778749      -0.49335438       0.13988317      -0.03257869      -0.05948492
N       14.82939543       8.19343370       1.78348384      -0.22552661       0.89575991       1.63952034      -0.12318818       0.20052981      -0.29378760
I       17.16393565       6.64386492       9.11673908       0.10412714      -0.14029780       0.12572529      -1.17572079       0.15535559       0.12017466
I       17.95056908      10.73287442       6.66825202       0.11234979      -0.01983235      -0.18030642       1.21665833      -1.07341872       0.68311470
I        8.47835170      11.81516577       9.01027805      -0.15821798      -0.01622874       0.08444165      -0.51806046       1.27373657       1.46353297
I        7.74045163       4.88327204       6.54595660       0.01564795      -0.25068851      -0.03091197      -1.92375610      -1.12709637       0.66987835
I       15.31431857       2.93507167       6.79493266       0.37809040      -0.05270941      -0.18101288      -1.87030903       0.93943481       2.11769358
I        0.30430691      13.75020815       8.96647188      -0.21046361      -0.20464108      -0.01865787       2.79201752      -2.43251793      -0.81212622
I       10.09686673       8.66041469       6.52934619      -0.00805073      -0.34978921      -0.06378049       2.10221934       0.01634612      -0.25256237
I        6.14864217       8.34528646       8.98661717      -0.01703147      -0.11491856       0.10842926      -0.48223431       0.69044037      -0.92198567
I        2.33679217       6.24151228       6.26235306      -0.14904396       0.06724336       0.32081194       0.91381386      -0.05542664       0.36364043
I       14.06636342      10.79331497       9.10371433      -0.17838709      -0.24906766       0.00575278      -1.72327498       0.09227746      -0.81769684
I        4.44538621      11.76481233       6.37847119      -0.06367272      -0.08906028       0.13981359       1.49748683       2.79434164       0.02481392
I       11.82126804       5.03084592       8.96603209      -0.00967719       0.00098968      -0.03973726      -1.43922330      -0.36142642      -1.26011870
H        3.28710605       3.37948559       8.32855280       1.00719656       0.69953477       0.30445902      -0.09092574      -0.08885123       0.02580610
H       11.78700061      12.01934637       7.66547680       0.32270619       0.38597957      -0.83076048       0.01495122      -0.15111492       0.17148730
H        2.03962035      10.47310281       8.66549993      -0.22962021      -0.04043719      -0.26564434      -0.16713550       0.20999089      -0.05010877
H       15.12794872       6.70435308       5.58011359      -0.20368618       0.06435435       0.20084697      -0.13616362       0.21963957      -0.13308979
H        4.25845766       4.52402293       9.63383142      -0.68163877      -0.74890069      -0.91546667       0.19941258       0.11058167      -0.03082386
H       11.40642602      11.83649513       5.81504203      -0.23489440       0.28205700       0.51154281       0.05169361       0.03818293      -0.11794753
H        1.74661413      10.08504046      10.39771073      -0.60942031       0.09935954       0.92746184       0.12971877      -0.10373573      -0.10114447
H       14.65617442       6.60321946       7.36021124      -0.57122184       0.50240956      -0.63411087      -0.10138818      -0.07693732      -0.00617405
H        4.60418466       4.71246644       7.80897174      -0.46253184      -0.97943506       1.36745517      -0.15662886      -0.15181075       0.25215867
H       12.66181846      13.10924629       6.30470205      -0.39551857      -0.06915405       0.30941403      -0.01029911      -0.09228273      -0.01994200
H        3.07018777       9.29825884       9.54784033      -0.39922963      -0.15297752       0.03157982       0.35297142      -0.04690423      -0.15159559
H       13.55453888       7.49810152       6.12589038      -0.65990905       0.35735697       0.20010735      -0.00130065       0.19191070      -0.09725137
H        6.36699369       3.25856756       8.90586958      -0.74983605       0.13571677      -0.07283478      -0.10186079      -0.02831985       0.05096533
H       10.75191122      14.23932669       7.52045450       0.25793505       0.31987956       0.62734089       0.13803996       0.11471879      -0.00158671
H        1.10130849       7.65792884       9.71405799       0.09549681      -0.06797584       0.09698750      -0.11520805       0.05287064      -0.15061671
H       14.89697276       9.06259651       7.49172314       0.22586876      -0.00403663      -0.61757599       0.01340150      -0.01617051      -0.11243308
H        5.38395166       2.35647863       7.76923742       0.27001707       0.16443928       0.71744756       0.01148851      -0.07675809      -0.01083315
H        9.59636718      13.15657622       6.99262003      -0.06684123      -0.15372112      -0.14244292      -0.04539975       0.06252509       0.01555124
H        1.43403282       8.07067366       8.05309509      -0.12037651      -0.26835103      -0.21725679      -0.09245697       0.06706295      -0.00417609
H       15.52304795       9.05295025       5.77799225       0.51014573      -0.50431732       0.92611838      -0.07486906       0.01281341      -0.02881840
H        5.11493992       2.22628312       9.45146455       0.14728961      -0.01141017      -0.29222376       0.03862219       0.06914939      -0.12397320
H       10.44201068      14.22869349       5.90135951       0.17433718       0.04730364      -0.54693126      -0.05429210      -0.07995435       0.08079695
H        0.11640636       8.75331169       8.86595863      -0.65754482       0.06221043      -0.15970096       0.07114309       0.17866482       0.08611008
H       16.44009391       8.22246993       7.22558581       0.24336539       0.09728381      -0.44846059      -0.11202842      -0.01771000      -0.01375922
C        4.28640979       3.94587014       8.63006692       0.15228766       1.80190879      -0.65389792       0.46658158      -0.12488572       0.46580989
C       11.67324916      12.56316016       6.62944702      -0.00825191      -0.27052675       0.05003523       0.16071869       0.16845945       0.41890435
C        2.02113977       9.64953356       9.45309927       0.74806644      -0.73820934      -1.03298896      -0.40125791       0.05066677      -0.42477227
C       14.59576426       7.25496693       6.43466880       1.46286962      -1.33102756       0.11516064       0.32852213       0.52459603       0.37038353
Pb      37.84777925       5.29136938       6.97215492      -0.12339072       0.10748840      -0.21265524       1.64611756       1.91517630       1.57358642
Pb      16.73357504      12.29702155       9.21941010       0.02745621       0.14918801       0.08017740       0.49378530       0.44033402      -0.72134611
Pb       7.14615177      10.11140338       6.48223993       0.04916308       0.15744125      -0.03339088       1.38953989       1.37995527       0.98413312
Pb       9.02472871       6.51270361       8.99477473       0.06067919       0.17330627      -0.04029801      -2.83571935      -0.63299723      -1.13123217
N        5.37143715       2.92566145       8.68916288       0.37285549      -1.12076942      -0.47475115       0.18877793      -0.42243069       0.40672526
N       10.54698465      13.59015771       6.74743764      -0.10466687      -0.49599463       0.02377983       0.31755454       0.04502182      -0.09946152
N        1.08735162       8.45738131       8.98702211       1.22626108       0.89859650       0.41042273      -0.13568350       0.18551379       0.49839341
N       15.45292814       8.46650501       6.71790077      -1.36807103       0.65551570       0.46885703      -0.23829524       0.10782084      -0.39859552
I       17.00194467       6.48733748      13.96639466       0.20993404      -0.06539372      -0.19049136      -0.43193532       0.38087816      -0.52189123
I       17.85307327      10.38176627      11.68780573       0.04129662      -0.05125962      -0.03688198      -1.57839201       0.76889070      -1.65267757
I        8.31676989      12.05835178      14.11199629      -0.22257903      -0.11368222      -0.16837975      -1.33530855       0.17715449      -1.00782090
I        7.57959559       4.73665781      11.24154452       0.01804792       0.02299804      -0.03291167      -0.82554100      -2.47565419      -0.96333130
I       15.56990950       2.79185842      11.42052352      -0.20074271       0.28350002      -0.07835021      -1.65338598      -0.83668032       2.76564667
I        0.33194575      13.68630923      13.72559453      -0.29554125       0.13358861       0.18549184      -0.86326616       0.75726550      -0.54296875
I       10.11962499       8.39438481      11.35439250      -0.16457202       0.13977169       0.21394375      -1.10923655      -1.06864208      -0.73111408
I        5.75326314       8.14144914      13.88528444       0.01292240       0.00538005      -0.20328688      -1.38785181       1.06159997       0.60578744
I        1.96507301       6.13538049      11.50163950      -0.24513583      -0.03663642      -0.08527042      -1.68529093      -0.72202192      -0.77328749
I       14.09297548      10.75553968      13.91412479      -0.25693511      -0.05216180       0.09944488       0.24688375       1.14679715      -1.27823719
I        4.42741065      11.80721040      11.26289160       0.15463983      -0.09826125       0.15762596       2.07094801       1.58058367       0.56597228
I       11.41087069       4.92669621      13.88106791       0.21908564       0.11212586      -0.05909488       1.29615777       1.95252072      -0.57649304
H        4.84295394       4.81104276      12.63330280       0.07113430      -0.34377376       0.38394751      -0.08505747       0.06679251      -0.07848083
H       11.25579849      11.91077650      12.70700442      -0.36866803      -0.68129600       0.72072253       0.02327819       0.37538881       0.01587458
H        2.85616604       9.31566124      12.94482006      -0.08062391       0.15986128       0.26695345      -0.18960858      -0.12226877      -0.01301641
H       14.21065856       6.34002349      12.26779633      -0.22130066       0.30343904      -0.21506169       0.01310762       0.12750834       0.03809038
H        3.34118892       3.72984666      13.01388242       0.11430813       0.05783363       0.01971677      -0.09232967       0.03697089       0.00787054
H       11.05468550      11.71035227      10.93368182      -0.07584143      -0.35613472      -0.52340902      -0.05451681       0.20281403      -0.02186227
H        1.27815104      10.35944285      12.65675140      -0.49566919      -0.43469043       0.23677299      -0.04578699       0.09499065       0.09888450
H       12.93439621       7.13689531      11.17924360      -0.07685215       0.22388334       0.40746661      -0.03184590       0.20277285      -0.13315094
H        4.16635890       4.68748818      14.41528791       0.22710456       0.16265007       0.44860407       0.03971830      -0.19847426       0.03956928
H       12.34169859      12.79587986      11.66261881      -0.20366907      -0.11475676      -0.35173039      -0.11645565      -0.03509930      -0.17360869
H        2.02265903      10.26895134      14.48147093       0.32947297       0.29627075      -0.06532446      -0.26866740      -0.02314776       0.04905478
H       14.47077132       6.52591884      10.49339918       0.07672245      -0.60471883      -0.44856110       0.05044830       0.17175537      -0.14344431
H        4.83941802       2.26014945      14.40071608      -0.04654405       0.09014424      -0.38057038       0.12747767      -0.06908486       0.03369554
H       10.29998896      14.02510046      10.75589569       0.26994412      -0.05781752      -0.37063722      -0.10304993      -0.01249622      -0.05558614
H        1.50604452       7.80559209      14.59826060       0.19195506       0.29004719       0.12625694      -0.13434633      -0.07322230      -0.18002846
H       14.66029863       8.79605713      12.46708074      -0.44731958      -0.17057900      -0.33165087       0.03250032      -0.15020205      -0.05109663
H        6.32132746       3.21129216      14.08919514      -0.72488021       0.28551890       0.38438140       0.04617796       0.25289874      -0.02209359
H       10.87105588      14.41853304      12.36995961      -0.26584906      -0.71828846      -0.40030491      -0.03552543      -0.02681224      -0.04226585
H        0.63319771       7.93797626      12.93763069       0.38307535      -0.19763910       0.07768789      -0.07349971       0.00388663       0.04994243
H       14.53316694       8.98951255      10.78643612      -0.03745853      -0.02675166       0.02887930      -0.06330674       0.13846307       0.07910300
H        5.56572988       2.47524924      12.67110602      -0.55606826       0.04574839       0.84509577       0.03814375       0.11282741       0.11661856
H        9.37245989      13.42661248      12.13758048      -0.50054660      -0.73165204       0.06611922      -0.30510148       0.03818635      -0.16153700
H       -0.15853175       8.62928762      14.43033325       1.19236397       0.42131563       0.24730101      -0.07530994       0.08075631      -0.00847803
H       15.81873393       8.12062235      11.48129153      -1.14498572       0.15249127      -0.20977084      -0.10589339       0.08684155       0.05557234
C        4.36173842       4.13424712      13.42644629      -0.12288819      -0.26657958      -0.73729089      -0.00422928       0.23156257      -0.23005365
C       11.31427992      12.38576926      11.73620357       0.21131852       1.42038456       0.12721326      -0.72756442       0.26485043      -0.14268541
C        1.82715173       9.72512634      13.45544554      -0.75217978      -1.21672530       0.41608086      -0.05771130      -0.34456673       0.27343008
C       14.02527164       6.98890948      11.39212854       0.28749338      -0.00217742       0.11390370       1.02734253      -0.11197281       0.83716075
Pb      37.46470588       5.07192245      11.80795468       0.21523345       0.26470810      -0.31758346       1.31143244      -4.91794046      -1.33359159
Pb      16.72775303      12.26924225      14.20045553       0.02570903       0.03243550      -0.29488674      -0.16083229      -1.75086254      -3.50631785
Pb       7.12968840      10.10791904      11.58605202      -0.01413480       0.21257195      -0.30318793       0.35933840      -2.30198256       2.94937501
Pb       8.78835793       6.60530600      13.87047600       0.02250063      -0.24954824      -0.04564491      -0.94363902      -0.03579383      -1.25607325
N        5.30132576       2.96923063      13.68439264       1.07433481      -0.20889340      -0.96212679       0.07047785       0.06600721      -0.81258005
N       10.38647269      13.56329837      11.73634723       1.02432575       1.32169584       0.68521705       0.04457135      -1.17262319       0.96936517
N        0.90106490       8.48910131      13.90656167      -0.78753397       0.75655620      -1.33851400      -0.43804487      -0.28383399      -0.07636427
N       14.76318985       8.28351251      11.53886203       1.60345570       0.08858634       0.56182131      -0.56944442      -0.57064491      -0.84604617
I       17.03918923       6.60190602      18.99273733       0.09751664      -0.10886790      -0.10886709       0.69641557       0.52983110      -0.26731295
I       17.89929127      10.22964752      16.52479865       0.09142875       0.01405299       0.11881577       1.54727260      -1.06623459       0.22696668
I        8.15821340      11.83586639      18.59192478       0.11287687       0.14443124      -0.11978920       1.76048367      -0.24921118       0.46275314
I        7.70348667       4.56582463      16.19848163      -0.11893678       0.11526264       0.00541505      -1.96104756      -0.86075623      -0.58386573
I       15.50238433       3.07878795      16.23415324      -0.07434043      -0.06861562       0.10749488      -2.81313076       1.42171078       1.34150697
I        0.13204458      13.63540161      18.83600432       0.14872464      -0.19534471      -0.27971145       0.92889452      -0.72021002       0.96074032
I        9.80786203       8.46620328      16.14232538      -0.12212224       0.06328043       0.17334101      -0.62481087      -1.11343604       0.48043059
I        6.01769670       8.15218376      18.80173763      -0.18928607      -0.07340930      -0.17917378       0.88420497      -0.37291121       0.49096481
I        1.96010217       6.12577534      16.22068945       0.41079723       0.12857297       0.08792015      -1.24108709       0.67296728       1.16282974
I       13.92837654      10.50488213      18.80376895       0.03056585       0.13638755      -0.08131916      -2.92794984       1.35287470      -0.79045804
I        4.01731738      11.83753278      16.16129712       0.15891069      -0.12647109      -0.18247459      -0.69655603       0.73883233      -0.37946938
I       11.52697834       4.88819600      18.66124965      -0.01223341      -0.24329526      -0.18757719       0.60176259      -1.72059708      -0.92196311
H        3.35285856       3.48950003      18.33187001       0.46671512       0.08006751       0.56137599       0.05929753      -0.03617602       0.02809765
H       11.60367481      12.18571266      17.26717379       0.10851663      -0.27437985      -0.12331886       0.07983512      -0.04601578      -0.01478750
H        1.57371873      10.31955196      18.03342459       0.00976500       0.14512459      -0.06803704       0.10517238      -0.08666954      -0.09449642
H       14.42069592       6.42813855      15.33912097      -0.08319356       0.15170976       0.26823599       0.18148482      -0.03266062       0.02421199
H        4.32556562       4.54402256      19.61747159      -0.40186586      -0.15776642      -0.11363548      -0.04541663       0.17366563       0.10567973
H       11.85868583      12.36216873      15.45026007       0.11722260      -0.42431706      -0.10878783       0.00986759       0.17381997      -0.18034970
H        2.00536947       9.95659534      19.86926843       0.19150097      -0.18571138      -0.74725659      -0.00472510      -0.07276133       0.04001437
H       14.10071071       6.53675014      17.14711945       0.04276995       0.07461076      -0.34010378      -0.00161019      -0.02531034      -0.03295356
H        4.55528785       4.72240757      17.84004774       0.41651391       0.19895281      -0.17350093      -0.04336618      -0.00149021      -0.04807803
H       12.74852030      13.53757756      16.64218458      -0.43653621      -0.55048730      -0.13752468       0.13349578      -0.13489906       0.11135178
H        2.93632731       9.05428386      18.46687859       0.15536084       0.19801875      -0.05542597       0.07527196      -0.04750620       0.05870899
H       12.91950395       7.28347266      15.99718214       0.66354711       0.23991044      -0.10218762       0.10460816       0.13731516       0.07559058
H        6.40737912       3.35924877      19.08185025      -0.68829250       0.03399364       0.00592277      -0.03481356      -0.07431549       0.01019427
H       10.65650031      14.49949329      17.29007849       0.33415814      -0.03652631      -0.83019382      -0.21794028       0.04809773       0.17628952
H        1.22208546       7.72643885      19.52587510      -0.08595254       0.20356438      -0.09019729      -0.06970238       0.03083803      -0.13364765
H       14.60871415       8.87234595      17.11964470      -0.06392680      -0.06320182      -0.02355200       0.08655397      -0.02783662      -0.24338638
H        5.63536128       2.40571707      17.71343630      -0.18646388       0.81157997       0.81700819       0.18897363       0.00129603      -0.04128537
H        9.69258863      13.33325137      16.57235645       0.01877913       0.01223233      -0.54379759       0.05065177       0.09813926      -0.12197805
H        0.88318279       7.79716371      17.91105523       0.13705014       0.36010595      -0.45758598       0.03770409       0.17583740       0.15640831
H       14.70857215       8.98813765      15.47853731       0.01166305      -0.10340824      -0.27045202      -0.17368891       0.03613829      -0.11750893
H        5.03499613       2.27466531      19.37685284       0.28903824      -0.51593031       0.31695534      -0.02619855       0.00313053      -0.03408218
H       10.62568625      14.45336434      15.55494179      -0.20110050       0.12153915       0.38797074      -0.11014274       0.02077328      -0.07487507
H       -0.05805960       8.74869344      19.02825688      -0.03133962       0.07625898      -0.11141607       0.09261407      -0.14453575      -0.01296395
H       15.87541085       8.12844695      16.34275105      -0.18757559      -0.14825607      -0.17614689       0.05339364       0.05324986       0.08486692
C        4.35332280       3.99275535      18.63624047      -0.71473298       0.71695943      -0.62619249      -0.28058728      -0.06696190       0.17989059
C       11.79413749      12.88203285      16.43879276       0.57643335       0.71544969       0.39547532      -0.10126695       0.37931377       0.02105748
C        1.93860840       9.53969180      18.76022427      -0.39554056      -0.40073226       0.69042000       0.02580860       0.06360784       0.39119396
C       14.01317739       7.06423381      16.16710627       0.03421388      -0.08053014       0.16762233      -0.05989850      -0.10493385       0.59735306
Pb      37.68506455       5.23497094      16.52834752      -0.43277205      -0.20634801       0.13474624       0.98594113       0.34704165       4.06814103
Pb      16.64149185      12.13989349      18.78512485      -0.02436366       0.11963123       0.11626645      -1.06987339      -1.69023351      -1.47046247
Pb       6.77065976      10.10246305      16.14439215       0.06664947       0.10029524       0.35218237      -0.31222593      -0.57217599       1.81355701
Pb       8.83697090       6.46757545      18.77768056       0.04708152       0.05280357      -0.21679925       1.28125962       1.55348248      -1.42090555
N        5.42551532       2.98548276      18.68021803       0.87181094      -1.27481345      -0.58078832      -0.50900910       0.22130915       0.54850541
N       10.62661380      13.84989115      16.43026907      -0.65689114       0.38910930       0.87152009      -0.26746538      -0.15121062       0.58013413