768
Lattice="25.625769195560288 0.1442251890105203 -0.06288156074118129 -0.08544278206367628 25.555723663810763 -0.05823012908242495 0.07213310111533067 -0.1299461261962401 25.66616038795785" Properties=species:S:1:pos:R:3:forces:R:3:momenta:R:3 energy=-3331.4086771266866 stress="0.0 0.0 0.0 0.0 0.0 0.0 0.0 0.0 0.0" pbc="T T T"
I        6.95670905       0.67819111       2.59433987      -0.01945169       0.04151347       0.17079237      -0.57298724       0.14116590      -0.71390657
I        6.00037309      12.28153157       8.87814076       0.06239270       0.08309526      -0.09906504       1.28199698       2.70725054       0.40153496
I        6.11865582       9.73563889       4.68697291      -0.04394423       0.18967753       0.11170126       0.19739420      -1.13350035      -0.78929886
I        6.67297282       3.37709360       6.29562294       0.04324527      -0.08823673      -0.03263014       0.19230086       0.74855518       0.04479173
I        0.52140113      12.20090473       8.86361496      -0.07923054      -0.01634721       0.19780515       0.05417178      -0.11859929      -0.44068542
I       12.71523312       0.92922354       2.54371253      -0.19916910      -0.12855556      -0.09446077      -0.95131529       0.78109989      -0.70415484
I       12.57485819       3.41346909       6.23722837      -0.04631661       0.03644607       0.04533164      -2.31372063       0.83344638      -0.72857378
I        0.38355969       9.76139389       4.99094396       0.09701285      -0.08280260      -0.17078225       0.99320148       0.23245006      -1.58380573
I        9.64568877      13.26169207      11.65839901      -0.06824094      -0.03500676       0.08822657      -1.70739478       1.76734627      -0.06666402
I        3.17432378       5.66421886       6.06896825       0.06512881       0.20494829      -0.05380187       1.48430934      -1.76598285      -2.58928339
I        3.34578007       0.52376828       5.18291883      -0.06071521      -0.09900270       0.02658968      -0.95368474      -0.03354554      -2.97748221
I        9.74013797      12.66233320       5.81789987      -0.46343448      -0.02484446      -0.02181387       0.38306547      -1.54435937       1.74568969
H        3.98825065       2.11679947       1.74740452       0.46164451       0.26383212       0.36265647       0.01907546       0.13721433       0.05095196
H        8.71292348       4.05209344       2.09411211      -0.99033481       0.41092126       0.11882665      -0.02468605      -0.00576361      -0.04492947
H        8.70085410       9.28918307       2.40294452      -0.43522895      -0.37869833      -0.29873192       0.24303622       0.01482028       0.15714816
H        2.30190989       2.69738558       8.09144475       0.07824203      -0.02716467      -0.05892350      -0.08139715      -0.11729308      -0.15458324
H        2.29693594       8.47974409       8.10399437       0.39599415       0.28013532      -0.09353853      -0.18957628      -0.14010754      -0.14180237
H       10.42844725       4.61268521       2.25800413       0.55863457      -0.22509640      -0.04642975       0.01632471      -0.10725006      -0.16198477
H        8.59691930       2.93035139       8.26270411      -0.39557440      -0.55011134      -0.01112160       0.06051657       0.04004294      -0.03707887
H        4.11688641       2.24203182       7.81261054      -0.11392099       0.42247594       0.00291863      -0.05401320       0.06379644      -0.01281730
H        2.89828602       3.49392678       1.19942471       0.47335157       0.27895159      -0.70242504       0.05739022      -0.11250466      -0.03798907
H        9.99084128       2.94807312       1.43896769       0.28010198      -0.70905519      -1.15754008      -0.09522077       0.08698982      -0.11749386
H        9.62083986       9.89656679       3.79050032      -0.12150402      -0.05602782       0.67699761      -0.10403004       0.08978017       0.01574429
H        3.26081097       1.97968849       9.37165482      -0.11098060      -1.92649333       1.31667359       0.02290355      -0.03432610      -0.09785698
H        3.19145438       2.99821293       4.05768485      -0.08396356      -0.58663768       1.03336580      -0.06582047       0.08277039      -0.04301952
H        9.63522089       8.40208753       9.74062031       0.23554032      -0.13936118      -0.04455726      -0.03294359       0.10714464      -0.12679271
H       10.49677058      11.65486559       2.57047557      -0.23097244       0.19313840      -0.30061635      -0.08030357       0.19122147      -0.00323254
H        2.22854012      10.24939146       3.07230273       1.19578952      -0.10507954      -0.63175259      -0.03614400       0.08532285      -0.16191377
H        2.53994531       4.36926144       3.19033839       0.07269666      -0.58868244       0.41402284       0.07799100       0.12147205       0.09282831
H        8.79256905       9.50777130      10.74422106       1.03486986      -0.18036757      -0.55493208      -0.05793340      -0.05323089      -0.13456887
H        8.83128621      11.79462470       2.48423448      -0.44158947       0.08654865       0.18220063       0.26417774       0.02384703      -0.11833848
H        3.17635824      11.27183086       2.01961181       0.05756778      -0.61540533       0.03714918       0.13660078       0.09043554       0.00705400
H        4.18455752       4.12952941       3.22486425      -0.12701658      -0.36002523       0.08434764       0.04578914       0.17571067      -0.12088556
H        9.61253674       3.62975527       4.30769703      -0.39418644      -1.50165239      -0.69941892       0.00944326       0.04395229       0.06929627
H        9.65793288      11.30202782       1.13878355       0.02370487      -0.23576130       0.31571547      -0.03978946      -0.23385016      -0.17976863
H        3.95851490      10.56529071       3.40499630      -1.11015786      -0.12071019      -0.94722651      -0.05678540       0.07583300       0.10582469
C        3.13369435       9.23566832       7.95845258       0.22467132      -0.29937875      -0.03598005      -0.25571434       0.11667844      -0.25847273
C        9.73763793       3.67814904       2.21002923       0.15660800      -0.37558112       1.33021991       0.75722248       0.07568766       0.20072140
C        9.52564106       3.22614959       8.84435834       0.92675399       0.54684533      -1.37549090      -0.24244682      -0.04848700       0.18309111
C        3.31937085       2.62267868       8.55587299      -0.30788900       1.27137906      -0.96223138      -0.67541597       0.46310975       0.35348441
Pb       6.25255103       6.74426664       5.63598903       0.16169970      -0.27727855      -0.35891788       1.12232096       0.42299508       2.34117543
Pb       6.38172372      13.13417968       5.47836244       0.07746650      -0.25863273       0.11260974       5.25065248       2.17302394      -0.82464167
Pb       0.09822606      12.99101401      12.04378293       0.06222394      -0.23046159      -0.12786989       0.84912792      -0.61493581      -0.69923459
Pb      -0.06100319      12.72531154       5.73188464      -0.14935680       0.00730083      -0.07598203      -0.90411639      -2.60387244       0.10531514
N        3.27263927       3.57902368       3.23221845       0.33857671       1.67042658      -0.82657917       0.68840002      -0.39374789      -0.18883866
N        9.63420846       9.40802255      10.04993759      -1.31668003       0.84453131       0.57513592       0.25519934      -0.07834913      -0.00416209
N        9.61742740      11.19551784       2.19113612       0.69215408       0.35230636      -0.42570639       0.26480018      -0.43575700      -0.99494417
N        3.22616090      10.37592466       2.58791914      -0.18069156       0.71630988       1.72264984       0.12547291       0.37100224      -0.27630613
I        6.74203225       7.20061796       8.78333854       0.14035693      -0.05330921       0.16151202      -1.28925596       0.54276819      -0.78464243
I        5.92749781       5.81403570       2.53052841       0.03756548       0.04889999      -0.09646466       0.37005172      -0.08200094       1.09298873
I        6.32017888       3.35083264      11.52437191      -0.00261283       0.01797321      -0.01268131       0.69387786       1.33125450       0.75428798
I        6.63302887       9.85988428      25.01790878       0.11744769      -0.26805770       0.16552908      -1.28462838      -1.67848788       1.13104883
I        0.28808056       5.89835060       2.41499336       0.27139529      -0.09092857      -0.22713168      -3.04866487       1.54176331       1.38466355
I       12.36211074       7.27082510       8.71683274       0.01738090      -0.05793852       0.17731531       2.95670256       0.12596588       0.22757926
I       12.41809123       9.87673695      25.17800848      -0.02626127      -0.24872605       0.14175629       2.25977272       0.11366487       0.57684387
I        0.67561748       3.51120489      11.41154373       0.11201393      -0.22487794      -0.13334555      -0.40222855      -1.88885387      -2.30761101
I        9.61575375       6.22463412       4.83507507      -0.11806249      -0.03044940       0.22868194      -1.13229670       0.10629022       0.21976096
I        3.17349442      12.59845921      25.51397816       0.26455362      -0.16556973      -0.14356399      -0.10766552       1.56165275      -0.84658155
I        3.39729886       7.05039571      11.21122727      -0.22779694      -0.06885611       0.16620224       1.46736191       2.20312014       0.63990041
I        9.69648188       6.20119486      24.91785427      -0.09540173      -0.06588242       0.04859734      -2.86681229      -0.69567192      -1.09993311
H        4.13272260       8.71491596       7.69311028      -1.00973814       0.76801081      -0.11793526      -0.01948423      -0.30638996      -0.06517872
H        8.56285415       9.98704273       8.35154638       0.25270407       0.23476158      -0.13974445       0.11424106      -0.08053955       0.24195808
H        9.48919454       3.02224099       9.92647547      -0.06888659       0.05770572       1.46849830       0.02678166      -0.01583132      -0.03981376
H        3.91195460       8.28138250       2.51376863       0.02366612       0.28962785      -0.46008838      -0.09074615       0.04672367       0.03443455
H        2.22816577       2.15004317       2.08735780       0.21654400       0.07856271       0.14173175       0.01437618      -0.11309358      -0.06076274
H        9.28843443      11.43066083       9.16181491       0.03524985      -0.17521476       0.36512705       0.08294258       0.17275107       0.10217339
H       10.53049069       9.32848814       2.38645258      -0.41125402      -0.12939283      -0.03073334       0.12288331       0.04902585       0.15792712
H        2.74026038       8.80364637       1.21487273      -1.04666303      -0.02526531      -0.61218493       0.02397056       0.06858711      -0.09027834
H        2.81631951      10.05588983       7.20358119       0.13856449      -0.66620801       0.22869064      -0.11056478      -0.12992335      -0.00724536
H       10.36154183      10.30481102       8.18062836       0.12773228      -0.11275976       0.00020545      -0.13644138      -0.00853229       0.22635950
H       10.41671704       2.74500555       8.38413901      -0.31885232      -0.13763253       0.16003690       0.33392152       0.02459720      -0.07681944
H        4.47567816       9.37230057       1.11155449       0.36889571       0.02588611       0.03609678       0.07673365       0.19829871      -0.01753097
H        2.54893650      10.52416438       9.58715382       0.06963184      -0.03726229      -0.26370107       0.04133571       0.12358523       0.03790141
H       10.73663247       2.45342807       3.67192643      -0.25490933       0.05165007      -0.27096874       0.13736157      -0.00705247       0.09934515
H        8.87877309       5.34773412       9.00662446       0.51350743      -0.43706251      -0.43358919      -0.02407046      -0.25091199      -0.07401051
H        3.76558654       4.71036557       8.43469949      -0.36169650       0.33502685       0.00713874      -0.02910988      -0.00136502      -0.34748006
H        4.22656754      10.51857392       9.15765004       0.03515803       0.12699625       0.52626576       0.13766374      -0.06302882       0.04917633
H        9.04936128       2.07865026       3.52644205      -0.36754701      -0.04735485       0.22779124      -0.08034109      -0.10326599      -0.05504068
H        9.78184873       5.01423025       7.57706740      -0.40543176       0.00599892      -0.57055754      -0.13059113      -0.08962413      -0.00533075
H        4.69191609       3.90842312       9.57524299       0.55428343       0.21527492       0.76324225       0.25688147      -0.02313769       0.10865996
H        3.49651436       9.19748728      10.07807982       0.25399396       0.39206425      -0.41949998       0.01940187      -0.01360672       0.11073646
H       10.49384081       9.58165705      10.60472346       0.17089407       0.00375482       0.18459822       0.08173502      -0.21686074      -0.00406369
H       10.55842386       5.23119859       9.03606435      -0.02751618      -0.20118872       0.28551277      -0.04702612       0.03002042      -0.05183880
H        3.01251742       4.24654674       9.97818813       0.33964805       0.18160588      -0.46025733      -0.22856242      -0.07947134      -0.04880217
C        3.14521308       2.78060171       2.00160700      -1.49032642      -0.69719007      -0.62030729       0.06983313       0.09511386       1.07425019
C        9.46739645      10.36738319       8.85931373      -0.57242946      -0.44940133      -0.35650111       0.10575397      -0.33844222      -0.29015617
C        9.58855809       9.80301530       2.71826031       0.82654635       0.16039994      -0.35615021      -0.38854960      -0.48633847       0.05976096
C        3.61477387       9.12123305       1.78988835       0.50705343      -0.22807802       0.98898496       0.04677358       0.36737174      -0.48357701
Pb       6.51596451      12.99324630      11.99503533      -0.20227121      -0.06827652      -0.11696074       0.17841135       0.50783792       1.86667110
Pb       6.40310691       6.62354134      11.99801595      -0.02633401      -0.03924657       0.14291481      -1.50301717       0.19235941      -1.03562511
Pb      -0.01758364       6.44584489       5.60681205      -0.03832780      -0.17142013      -0.03161424      -0.55309366      -0.03824604       1.36486113
Pb       0.15197484       6.47838442      12.01663295      -0.02036226       0.18356549      -0.10060726      -3.00568822      -1.33968051      -2.05542702
N        3.36208907       9.91125913       9.29660070      -0.09422826      -0.34620454       0.14713016       0.05309216      -0.01663542       0.55793049
N        9.76525191       2.86771669       3.52985879       0.88186379       2.45837564       0.41701309       0.29702502      -0.12074896       0.27637830
N        9.69155116       4.77886475       8.61818818      -0.29302988       0.86413687       0.35169629       0.16426158       0.04514473       0.67456336
N        3.70992263       3.98870845       9.18094230      -0.36581784      -0.53072299      -0.55603731      -0.67146090       0.01610402      -0.28508413
I        6.77805375       0.68449178      15.40203839       0.11175910      -0.03676151      -0.02414902      -0.49371767       1.18116865       0.07174851
I        5.94176383      12.01512320      21.54455751       0.00429659       0.15807486       0.18631256      -1.68693806       0.55757155      -1.59537909
I        6.07801737       9.77225118      18.18575699      -0.00623422      -0.21317854      -0.16523984      -0.52332847      -1.19769916      -0.10063984
I        6.51068994       3.31467267      19.11456467       0.09939069      -0.02327447       0.10375796       0.11915757      -2.35172715       0.23963039
I        0.87517592      12.14845918      21.77264338      -0.25846406       0.20846048      -0.20385175      -1.26469613      -0.47651929       2.62246687
I       12.55515063       1.11040456      15.25866672      -0.07312190      -0.13939152       0.15606017       0.56700569      -0.26099352      -1.15404253
I       12.60152103       3.31548654      18.73769083      -0.07147088       0.05010289       0.15089693      -0.15532730      -1.11603705      -2.27686971
I        0.00050516       9.68776506      17.74865932       0.28374632       0.05754504      -0.12579659      -0.24487131       1.27783363       1.00165338
I        9.60662522      13.10722882      24.52548096       0.18885231      -0.03096383       0.05813931      -0.30965146       0.26691087      -0.24589956
I        3.22566576       6.15736928      18.73747407      -0.27074327      -0.15338478       0.14065371       0.21508634       1.29832687      -1.58494646
I        3.30613272       0.44851191      17.66989866      -0.06641556       0.03529561       0.06930257       1.00565001       2.34074745      -0.41848733
I        9.58017585      12.64246874      18.85049440       0.01752043      -0.02580714      -0.06939332       1.07738036       1.68375620      -0.98146613
H        3.79798733       2.26379302      14.47402745       1.10632496      -0.50111949      -0.17106351       0.16763775      -0.08161400       0.09519410
H        8.39901689       3.62029434      14.29540847      -0.48309496       0.25922516      -0.09292741      -0.04787696       0.18862854       0.07118443
H        8.77680741       9.34460858      15.45480463       0.01051667      -0.03198085       0.29182351       0.06989121      -0.03003700      -0.00461586
H        2.32907034       2.47962014      20.38935644       0.00720560       0.15496178       0.07141350      -0.10286397       0.07720469       0.18293784
H        2.26222928       8.78059108      20.67156313       0.04983900      -0.06629521       0.10300492      -0.01532290      -0.05394866      -0.03879914
H       10.18536777       4.34326729      14.86618692      -0.34814909      -0.20448667       0.16519492      -0.00769769       0.12713830       0.13540699
H        8.86935704       2.43115821      21.59458309       0.17530696       0.60113730      -0.04038763      -0.01679934       0.00981246       0.07528516
H        4.13973983       2.07298060      20.88917519       0.02044556      -0.32322916      -0.07957960      -0.13120177       0.03362204       0.05861359
H        3.01379174       3.70498016      13.76971441      -0.11962395      -0.34768498       0.49688975      -0.04340582      -0.02517004      -0.06179377
H       10.08641791       2.39425525      14.38979758      -0.24297158       0.05236369      -0.00004256      -0.06351399       0.05837223       0.04619915
H        9.66576220      10.11782732      16.84712940      -0.16449330      -0.00734719       0.08418676       0.06210388       0.11282418      -0.05111922
H        2.65210298       1.74479779      22.16293781       0.14827983       0.06592349      -0.63162091      -0.11287362       0.18083589       0.09308878
H        3.22237986       2.87835458      16.67919704      -0.16947420       0.53512552      -0.62698982       0.02850056       0.08784032      -0.04257355
H        9.68131593       8.40859280      22.98270545      -0.17952169      -0.40352436      -0.29132739      -0.09917371       0.00694822      -0.07956399
H       10.43707566      11.78196488      15.36366723       0.24851477       0.13835175      -0.14736662       0.05657538       0.03017807      -0.09287354
H        2.65475719      10.06383359      16.45144831      -0.32342156       0.25940862      -0.14107556      -0.10466047       0.09668754      -0.00053784
H        2.36903219       4.26998754      16.11654737       0.04774599       0.04361106      -0.01588119       0.11707418       0.16846212       0.02830498
H        8.62739834       9.67070385      23.45579850       0.29909189      -0.42754868      -0.52530849      -0.03395126       0.13989917       0.03651047
H        8.76931834      11.76475331      15.15389059       0.72699236      -0.70033937      -0.32867468      -0.18357681       0.19482511       0.03029553
H        3.35483457      11.09990801      15.26604452       0.10577473      -0.21425991       0.31211282       0.06900110      -0.01238049       0.07754463
H        4.06374503       4.14868589      15.94068915      -0.23143663       0.10951216      -0.09757691      -0.10747848       0.06152798      -0.07201892
H        8.86822036       4.17122471      16.85941808       0.40000135       0.68304553       0.77621821       0.00647402      -0.01089593      -0.14896763
H        9.81848114      11.03343469      13.98403473      -0.06834458       0.00872117       0.59349421      -0.15525555      -0.11835835       0.08157378
H        4.29879501      10.09072629      16.39059414      -0.17720729       0.15846205      -0.58506200       0.05758310       0.16395044       0.03272771
C        3.15643482       9.39580704      20.87391211      -0.08654866      -0.82304309      -0.28167674      -0.12626665      -0.24290726       0.35836246
C        9.47434165       3.40489208      14.88792147       0.85411268       0.24105822      -1.00563918      -0.46923707       0.30740712      -0.20206931
C        9.72227842       3.12542430      21.81969630      -1.04316538      -0.95444809       1.54961894      -0.10979634       0.15020265       1.02253936
C        3.07565153       2.41195147      21.24530137       0.56357816      -0.34073203       0.82762587       0.69051829       0.68231082       0.43942002
Pb       6.28026717       6.35334045      18.48152734      -0.02882070       0.42114806      -0.18802640      -1.44504732      -3.02185543      -0.99227089
Pb       6.36539784      13.01794241      18.46642098      -0.01611601      -0.09087488       0.05537617      -0.04260643      -2.69285004      -2.96539073
Pb       0.22715875      12.88272312      24.87338132      -0.41413109       0.04312411      -0.24497039      -2.27437853      -2.26532145       2.92710111
Pb      -0.04434364      12.93072185      18.38777160      -0.07216797      -0.02187214       0.27448289      -0.50248026       0.10290644       0.42505204
N        3.15706691       3.61385313      15.90775489       0.20740412      -0.56284956       0.96599230       0.01427629       0.08238093      -0.01870088
N        9.56258249       9.43139449      22.98791985      -0.58497292       1.14348073       1.08652110      -0.35115190       0.24839644      -0.32178400
N        9.66912813      11.16661267      15.02483185      -0.55644922       1.26486662      -0.39199410      -0.34250898      -1.03630238      -0.31442911
N        3.43646929      10.16038843      15.75710225      -0.11886398      -0.69609363       0.23413746       0.15311586      -0.30719115      -0.66064039
I        6.92358130       6.98662620      21.77769673      -0.08473698       0.00871065      -0.15832379       0.16363429       0.70764336       0.00047214
I        5.97720707       5.77106826      15.30006621       0.03889119       0.03199499      -0.03184335       1.23187523      -0.39471561      -0.51895405
I        6.09040990       3.23137891      24.13244230      -0.04758070       0.02529864      -0.02809528       1.87928420       0.02920631       0.75068601
I        6.94623011       9.76493616      12.62112690       0.06431505       0.02016554      -0.04846768      -1.88079628      -1.60168687      -0.07106518
I        0.51995431       5.92577541      15.18657145      -0.02766570       0.05123368      -0.11684692      -1.97282948       1.09064303       1.39541098
I       12.24948823       7.15127395      21.77046621       0.02405624      -0.16089023      -0.40636524      -0.02688240      -0.26984224       0.48715039
I       12.32091757       9.88177467      12.44923630      -0.04961805       0.06380620       0.11465737       0.42865269       0.12409225       0.38340039
I        0.67527663       3.20979089      24.26245214      -0.07619746      -0.02953951      -0.10840252       2.60531913      -0.49574674       0.83535888
I        9.38374157       6.42795749      17.99465992       0.47925234      -0.09187475       0.06604774       0.49769452      -0.44924941       1.47699156
I        3.16090842      12.41375228      12.48412462       0.20851206      -0.06262020       0.19712885      -2.15572915       1.09364488       0.46198936
I        3.27220918       6.66759536      24.29211893      -0.03176309       0.05635645      -0.05154055      -1.62183613      -0.07934632       0.54712677
I        9.54581681       6.28887338      11.96423392       0.20186397      -0.12228609       0.03293569       2.84359385      -0.78011471       0.12108344
H        4.06440547       8.80696247      20.57782847      -0.10322629       0.03151931       0.26595058       0.00153087      -0.15241866      -0.08101111
H        8.98271545       9.60362275      20.87754144       0.68740203      -0.02148147       0.20865915       0.01558958       0.21274148      -0.06835225
H        9.82441768       3.15137092      22.92857226       0.00954910      -0.20243901      -0.19123646      -0.13689791       0.05431888       0.20619191
H        3.68244329       8.00741730      15.26015239      -0.32683811       0.26831105       0.17542963       0.17405289       0.08617942      -0.10378162
H        2.09166653       2.33777590      14.55672756      -0.35489070       0.28397214       0.08460013      -0.01063935       0.10242440       0.04457919
H        9.46036739      11.15699988      21.77016128      -0.05986950       0.53888304       0.17677629       0.02976278      -0.02211957      -0.01854555
H       10.52935703       9.33006712      15.51689798       0.86325243      -0.34768978      -0.25416366       0.09220630      -0.07151305       0.00199626
H        2.42948672       8.97581571      14.23763563      -0.41797613       0.17191758       0.06856614       0.02076102       0.16342260       0.10509560
H        3.12091247      10.30630512      20.24322125      -0.06540717       0.43624753      -0.16730024      -0.07375846      -0.03527390      -0.09501339
H       10.84396568       9.98708141      21.40532418       0.34007100      -0.27526988      -0.93991597       0.20648648      -0.25537082      -0.05737941
H       10.62096010       2.69686891      21.39275763       0.73132201       0.00864521      -0.40649666      -0.15927078      -0.05685634       0.00924423
H        4.19797487       9.17554389      13.95296447      -0.25899984       0.16705274       0.13539724      -0.05677235       0.13516904      -0.02189381
H        2.35472570      10.37234678      22.57682910      -0.51191699      -0.12218613       0.00570545      -0.00044963      -0.21192484      -0.09545965
H       10.13882828       2.88370978      16.87044180       1.16054920      -0.31664159       0.56911426       0.06005114       0.03429160      -0.10170732
H        8.69387795       5.07363347      21.90992845      -0.09656872      -0.55632656      -0.06600019      -0.02929446      -0.02576634       0.02472300
H        3.45217488       4.52861741      21.01370955      -0.02840867      -0.28885483       0.06503609      -0.04796864       0.04892496      -0.02378077
H        3.93441171      10.48174874      22.40627746       1.11249397       0.30549616       0.32144528       0.19349584       0.03448724      -0.14218811
H        8.52631361       2.45061654      16.55396490       0.43727986       0.55323659      -0.56766222       0.09667343       0.14201918       0.01889852
H        9.22148610       4.63305366      20.34678475      -0.00775243      -0.06837474      -0.25099443       0.07063886      -0.06640611      -0.06218305
H        3.95007049       3.92116122      22.54507245       0.17663334      -0.57048651       0.07163420      -0.20040109      -0.01539049      -0.19530343
H        3.33437423       9.01365041      23.00606571      -0.08497076      -0.61183465       0.38095033      -0.05635374      -0.16749384       0.02959315
H       10.27246022       9.76276481      23.72893884       0.02119980       0.07337858      -0.61071237       0.13265309       0.13652191       0.02596304
H       10.27273069       5.09216018      21.50921064       1.60625261       0.68517731       0.53141352      -0.05630068       0.01359670      -0.03246001
H        2.26327295       4.11855845      22.19590200       0.30897787       0.00530896       0.29193953       0.12646311      -0.04769750      -0.00893282
C        2.99231363       2.95383640      14.58866727      -0.39048500       0.37715075      -0.64764035      -0.66424752       0.40621396      -0.28123289
C        9.71540252      10.09049021      21.62935344      -0.55051566      -0.63376846       0.88884742       0.22139730       0.31609020       0.14278310
C        9.66580924       9.90407205      15.77527337      -1.01257073      -0.33391393      -0.00094924       0.07844316      -0.25750049       0.24774311
C        3.39526497       9.00903996      14.74529275       1.30304377      -0.10815288      -0.24181796       0.56751386      -0.16748286       0.82669573
Pb       6.53207516      12.98841720      24.57568848      -0.18956764      -0.15841010      -0.00556689       1.13658832       1.59603113       3.49937846
Pb       6.37166501       6.29886654      24.72723633       0.04949428      -0.01106592       0.31844351      -0.27140160      -2.42656517      -2.41904394
Pb      -0.06365329       6.56301891      18.30709406       0.05318164      -0.04095426       0.15466116      -1.14322492      -1.84033554      -0.06156771
Pb       0.05898134       6.28787154      24.90390624      -0.08907386       0.21514147       0.06707052       0.54601486       0.14105348      -0.65385772
N        3.19374303       9.78783865      22.33200644      -0.15784917       0.77100882      -0.44866388       0.20353495       0.37371611      -0.35007235
N        9.25342907       3.23715710      16.37989961      -1.62898206      -1.22179334       0.14353169      -0.93492528      -0.73409980       0.52143683