768
Lattice="25.625769195560288 0.1442251890105203 -0.06288156074118129 -0.08544278206367628 25.555723663810763 -0.05823012908242495 0.07213310111533067 -0.1299461261962401 25.66616038795785" Properties=species:S:1:pos:R:3:forces:R:3:momenta:R:3 energy=-3307.459832182319 stress="0.0 0.0 0.0 0.0 0.0 0.0 0.0 0.0 0.0" pbc="T T T"
I        6.94431188       1.04800157       2.22249243      -0.13855287      -0.15452223       0.52406703       1.32279771      -1.20456163       4.55409494
I        5.99263987      12.59820691       9.12143783       0.01218643      -0.13267353       0.04792291       0.59396019      -1.55910228       0.22379153
I        6.10906345       9.91562801       5.11391748      -0.32497748       0.01662432      -0.29072336      -3.26360585      -1.25296063      -0.56307594
I        7.09898621       3.64864143       6.00786677       0.03106516      -0.19561609       0.25066835       1.25673468      -1.63627562      -1.39278659
I        0.64045047      12.42217454       9.23902870      -0.03239263       0.07254157      -0.02898252       2.19877882      -2.15626869      -2.75376301
I       12.65744553       0.84522355       2.51859593      -0.03336608       0.04315922       0.18304292       2.59941787      -1.27855026       0.81759107
I       12.03741256       3.36838618       6.55029736       0.27887609      -0.31764028      -0.18250101       1.01429753      -0.22021238      -0.15943131
I        0.16161621       9.91309132       5.26347067      -0.08189534      -0.21667493       0.02066200      -1.31231144      -0.00489428       0.56778673
I        9.43057649      12.79677414      12.25811266       0.34002610       0.20619495      -0.16655289      -0.80863713       1.11050710       2.22142504
I        3.42960564       6.16742121       6.22997654      -0.24218713       0.14964082      -0.05947668       1.56154011      -0.35286033      -1.89150077
I        3.39968381       0.83620780       4.94561568      -0.35907245      -0.00447090       0.12691318       2.12768017       0.68237171       0.57897562
I        9.84808616      12.55950280       6.03888596      -0.56499088       0.09028882       0.04707062       0.18697895       0.29594700       3.13939722
H        3.71211890       3.05435823       1.25408781       1.15941380      -0.45328210       0.01476254       0.21940234       0.00388554      -0.17132871
H        8.61375538       3.89009072       2.16693629       1.07088016      -0.11607901       0.64430030       0.08230062      -0.04211329      -0.00089646
H        8.77344907       9.18454023       2.82989475       0.91016625       0.67525837      -0.24873322      -0.01720507      -0.07676912      -0.05143455
H        2.50478776       3.22698379       7.86551015       1.85905004       0.01339216       1.27076467       0.18211264      -0.22233613       0.05397173
H        2.04777321       9.27779839       8.43772662       2.18189366       1.56603249       0.24252614       0.09806369       0.08675464      -0.12883372
H       10.48255011       4.21448617       2.26489088      -0.98331350      -1.01047034      -0.06785952       0.55841509      -0.23131253       0.14163978
H        8.35712905       3.08198784       9.37443234      -0.65726365      -0.50905382       0.22452488       0.21085445      -0.05955175       0.09548200
H        4.40668472       2.71292923       8.63312376      -1.12324833      -0.17461577       0.42386907      -0.06309700      -0.25691943      -0.14972032
H        2.52857431       4.48863701       1.04137114       0.37197556       0.35268594      -0.76280933       0.06259357      -0.00269345       0.06400772
H        9.60163954       2.55517943       1.77179005       0.95086330       0.18269782       1.04023234       0.01276418       0.31431797      -0.12479521
H        9.57250739      10.00531776       4.15674085       0.68710371       0.20716129      -0.43471216      -0.19557315      -0.23169690       0.37075405
H        2.69953978       2.30650024       9.70964914      -0.08430377       0.43835962      -0.10116186      -0.06329153       0.20475937       0.01132535
H        2.80973841       2.99205982       3.66336573       0.11959264      -0.05852320       0.16789934       0.51560073       0.17467683       0.22078268
H        8.76095801       8.21136831      10.22872873       0.44107904      -0.73711733      -0.23311108       0.13948061       0.12117441      -0.21320006
H       10.74564110      11.54947686       2.40535871      -0.25715171      -0.55088234      -0.52038365       0.27586493       0.11666758       0.12980556
H        1.86226794      10.22823639       3.72864114      -0.85186399       0.07298391       0.18583926       0.29524550      -0.01661822      -0.09147478
H        1.78992270       4.29656782       3.27056794      -0.95379758       0.92128019       0.10342811      -0.11931119      -0.03961660      -0.20327974
H        8.61464295       9.66882015      11.24820515      -0.46623114       0.14793101      -0.04689235       0.13270166      -0.22328130       0.01800174
H        9.13404954      11.87043131       2.50652297       0.04032147      -0.99478050       0.02375663       0.07389368      -0.31902344      -0.02694965
H        2.55363755      11.17659850       2.48893631       0.40684886       1.38603558       0.14776294      -0.30743893      -0.13037314       0.15595138
H        3.47727571       4.57220991       3.25508897      -0.73320520      -0.52004588       0.06931941      -0.12420846       0.50218504      -0.06096740
H        9.54058983       4.00161427       4.49397205       0.36443183       0.77644800       0.51748701       0.05678925      -0.02502700      -0.10316988
H        9.67523086      10.88293456       1.17724683       0.32242516      -0.09904863       1.47720257       0.04357292       0.16183542       0.32915105
H        3.47840956      10.47574762       3.78858026       0.43351704       0.15177682      -0.54896873       0.00649244      -0.15945178      -0.07662769
C        2.93834589      10.07968367       8.32903672      -2.78014122      -1.22878124      -1.67717470       0.03783917       0.91420138       0.86618239
C        9.65033695       3.44939416       2.44310765      -0.91509602       0.79584336      -0.36983510       0.86145312       0.49724247       1.02893262
C        9.53235914       3.38050200       9.22888097       1.25437863       1.61674173      -1.26573196       0.50996526      -0.90465373      -0.48593139
C        3.22431455       3.05787032       8.89168033      -0.24781161       0.58240286      -1.55694385       0.36357210       1.66377777      -0.33013689
Pb       6.62622608       6.60294099       5.71978580      -0.36580955      -0.09241164       0.43795652       1.55099221       2.44994497      -3.64484231
Pb       6.52261851      12.73847796       5.60498419       0.14574021       0.10782853       0.53920978       0.91449646       1.92098901       2.61002907
Pb       0.24706697      13.04352310      12.15757272      -0.01277544      -0.10313525       0.12809328       0.68788157       3.87912789      -0.07274524
Pb       0.25207904      13.04612438       5.67598410      -0.30315616      -0.24772505       0.48187696       6.18384237       0.16946791      -2.39622186
N        2.69504235       3.85575649       3.03658695       1.85825471      -0.04819748       1.23393867      -0.28405893       0.50902343       0.39897701
N        9.27914471       9.20650740      10.54915067       0.01482945       1.75652282       1.41841914       0.47637329      -0.36364695       0.87650216
N        9.81848168      11.04541838       2.23738176      -0.12921572       0.89964558      -0.25486162      -0.49484992      -0.01037529       0.00759961
N        2.70152193      10.38250154       3.10663402       0.25747866      -0.79610403      -0.11497536      -1.46351415      -0.74976297      -0.40917471
I        6.98066036       7.56400346       9.21211038      -0.05227695      -0.21950732       0.17159559      -1.43382677       2.99460771       2.46961984
I        5.94254051       5.73353693       2.99639337      -0.00288996       0.10866784      -0.71074309      -1.86269892       0.94202233       0.95082220
I        6.06033995       3.60486417      11.40228098       0.02206195      -0.27393794       0.11589638      -2.09642858      -0.57331534      -0.76043933
I        7.12390508       9.52290145      26.12203580       0.07275908      -0.11986262      -0.34829102       2.94278652      -2.06003820      -0.40366170
I        0.16769594       5.82184202       2.52746034      -0.14386253       0.19048588       0.19474960      -2.17632479      -2.68778253       1.03401801
I       12.05842988       6.86006388       8.86008587       0.49548104       0.06438590       0.16779031       0.98819794       0.39173762      -1.82936123
I       12.53886180       9.89652912      25.35906462      -0.21151799      -0.46554612      -0.01677905       0.66139620      -1.10244416      -1.98710455
I        0.35059694       3.45772598      11.39435816       0.10141637      -0.11460260       0.07707904      -1.85277073      -1.95253539      -0.60091289
I        9.86242714       6.87556027       5.14930716      -0.34744848      -0.07572599      -0.09333790       1.23506450      -1.56194165       3.84204934
I        3.09926677      12.29841261      25.71623593       0.20524257      -0.09045477      -0.05796237       1.07830858      -2.20297532      -1.66391556
I        3.30386938       7.09234439      11.43775520       0.13973589      -0.08631427       0.14739647      -3.63494658       0.64216741      -2.56505276
I        9.60554587       5.75478620      24.93470111       0.42495000       0.09720428       0.13879833       1.70016844       2.37295085      -0.26912289
H        3.85337429       9.64608683       7.66468927       1.46177071      -1.17463385      -0.06455644      -0.04507103      -0.11434752       0.26648619
H        8.34307519      10.50757462       8.90464897      -0.39180639      -0.13408272      -0.54717640       0.03165858      -0.24728770      -0.19128815
H       10.26639435       3.53896151      10.34182204      -0.24279793       0.16635119      -1.21002152       0.08736587       0.03367461       0.15886796
H        2.83338633       8.26531580       2.72274680      -0.26236798       1.07931481      -1.07018584      -0.05216051       0.22347359      -0.07551042
H        1.99195093       2.77862460       1.32544121      -0.68241513      -0.47013338       0.36332704      -0.06754743      -0.06551290       0.25770597
H       10.07536795      11.32379222       9.74627747      -0.21585398      -0.94839502       0.30019815       0.12403614      -0.00803342      -0.12263036
H       10.59078545       9.22990040       2.81138902       0.87703766      -0.90622345       0.13548736      -0.10681077       0.08061545      -0.27559552
H        2.05333985       9.27353710       1.41375722      -1.04835333      -0.04929911      -0.83367189       0.01561250      -0.02377662       0.17675011
H        2.45417235      11.00678536       7.69888083      -0.00040501       0.21903157       0.20673895       0.02494155      -0.02622165       0.04317905
H       10.18371527       9.56917051       8.74965055      -0.50396716       0.11594995      -0.35262563       0.14943781       0.08770439      -0.10117286
H       10.14607225       2.71589639       8.29259874      -0.28796073      -0.47238925       0.45860624       0.13816230      -0.15025321      -0.19450553
H        3.87780609       9.28022482       1.61368860      -0.96839465       0.43088497       0.38734139       0.32179905      -0.09782599      -0.18882692
H        2.55829283      11.00011389      10.10409838       0.56158967      -0.05824691       1.03832517      -0.03308721      -0.08831858       0.37559576
H       10.44863445       2.57707648       4.32398932       0.54787678       0.22510294      -0.24131227      -0.08734944       0.00559245      -0.07432718
H        9.08703713       5.59552812       9.31164309      -0.32883460       0.10098746       0.06730175      -0.23362867       0.13946627      -0.04341769
H        3.53257754       5.19957016       8.76767018       0.33679143       1.15789887      -1.70658082      -0.18611653      -0.09215403      -0.21539957
H        4.33319681      10.90348937       9.96465494      -1.68322354      -1.15930488      -0.41394239       0.02024365       0.14627673       0.06710461
H        8.81975037       2.56078767       4.23781656      -0.04679778       0.14391990      -0.38861817      -0.13345803      -0.08906924      -0.25279001
H        8.75766657       4.74004161       7.44979296       0.40147244      -0.72931068      -0.48646875      -0.16837140       0.23280408       0.24045748
H        4.04731285       4.56154530      10.27989537       0.39761870      -0.52975325      -0.96484990      -0.13693670      -0.04767804      -0.11719658
H        3.43215859       9.34368487      10.24956837      -0.12592283      -0.16496210       1.85729649      -0.27926916      -0.08413012      -0.24450277
H       10.23517232       9.00728411      11.20555575      -0.30750116      -0.42002320      -0.88276196       0.01549509       0.12734277       0.03167975
H       10.76124790       4.98894609       8.25529372      -0.65405666       0.11065683      -0.52554724      -0.13905633      -0.23570167      -0.05895323
H        2.50590008       4.85942234       9.97841580      -0.62608925      -0.70198005      -0.39917302       0.50711099       0.28384374      -0.29650638
C        2.76940119       3.51485109       1.59807589      -0.73165425       0.10641574      -1.07341934      -0.81961142       0.27773168      -0.25097324
C        9.45102033      10.23882755       9.38796708       1.56108205       0.32105134       0.48681443       0.27189871       0.39167900      -0.63357512
C        9.71430698       9.75939603       3.07434442      -2.20973524       0.84235673      -0.15828833       0.32633040      -0.23021693       0.20205525
C        2.84863932       9.24970093       2.11090736       2.40183289      -2.29915102       2.09270026      -1.17621023       0.44656195       0.05028328
Pb       6.30662715      12.64948348      12.41487493       0.01134155       0.22900439      -0.02679270      -0.94340144      -2.06836030       0.50111165
Pb       6.35243046       6.34365790      12.40538414       0.61910739       0.29092658      -0.31970043       2.42408610       2.00764252       4.73723422
Pb      -0.04575077       6.29343441       5.70279249       0.28153008       0.27495432      -0.14780179      -0.71142838      -1.37005899       1.05013648
Pb       0.10922523       6.40530375      12.12252703      -0.05927091       0.29897841      -0.09697434      -0.77798260       1.04046459       0.64402973
N        3.37120495      10.36291707       9.81786095       0.51429119       1.86561566      -1.30254260       0.15137548       1.54248305      -0.03522378
N        9.64833130       3.13460104       3.95303844      -0.90024180      -0.90172039      -1.27047417       0.34092641       0.20114188       0.10325547
N        9.53138058       4.74479231       8.46317847       0.20442107      -0.26270007       2.83499253      -0.05919040      -1.10518349      -0.00441167
N        3.35680466       4.47771213       9.43904141      -0.49298943      -0.98688664       2.66489987       0.07361338      -0.53601087       1.27723831
I        7.34452125       0.86894016      15.47391393      -0.02585578      -0.12590540       0.03691421       0.05790378       1.32390270       2.23157310
I        6.20792669      12.29862493      21.97658161      -0.20744757      -0.26206227       0.30967830       2.31083806       1.58057141       1.76049383
I        6.57732205       9.71482278      17.65406259      -0.21011080      -0.11586048       0.08989531       3.76064313       1.01931598       3.26325836
I        7.10735083       3.34756957      18.81875158      -0.11548875      -0.09516260       0.09989704      -1.16485283       3.35347143       1.24372319
I       -0.16615948      12.15150852      22.18698256       0.23264320       0.00679999      -0.21510398      -2.11205603       0.04369325       1.03132501
I       12.91529386       0.95857259      15.50849017       0.05363743       0.05265763      -0.09657444       1.03940791       2.49519736      -2.22145251
I       12.85723033       3.32828337      19.37225647       0.03504253       0.27418759       0.04853254       0.22859058       3.96367224      -0.93431688
I        0.51710522      10.06841011      18.42421142      -0.07413126      -0.42812197      -0.08183023       0.13885643       0.03925973      -1.73187588
I        9.63777612      12.91262943      24.52697633      -0.37230369       0.06546881       0.09070167      -0.67512059      -1.07438618      -1.19599557
I        3.40324930       6.22167464      19.51586001      -0.02958808       0.12884343      -0.49952118      -0.72173068       4.51082517       0.68910384
I        3.72746712       0.37638601      18.04933453      -0.20358490       0.15289269       0.10804553       2.60239936      -0.10616739      -0.66091205
I        9.89278691      12.84972780      19.06533557      -0.04754163      -0.03377058      -0.26902967       2.26464472      -2.42494653       1.35292938
H        4.03533857       2.83189047      15.04506552       0.82600826      -0.68349159      -0.62319870      -0.04834761       0.15794868       0.27068265
H        8.44570126       4.04331519      15.26552704       0.44097371      -0.16058025       1.11327856       0.11706814       0.08028191       0.15667761
H        9.52156879       9.35047202      15.96464334       0.46551970      -0.55334853      -0.27882250      -0.22370622      -0.16569691       0.12262579
H        3.26313784       2.05922193      21.22772386      -0.02157980      -0.06048615       0.29842128      -0.05030385      -0.06648230       0.02579022
H        2.28733217       8.76375122      21.68724698      -0.41042527      -0.71145199       0.24264916       0.06238033      -0.17939890       0.25765599
H       10.33257486       5.27812160      15.60641185      -1.63640817      -0.89633257       0.03211146      -0.08057895       0.06598069       0.00850670
H        8.24943534       3.23433921      21.32873985      -1.13930171      -0.24862211      -0.33204729       0.08413291      -0.23857758      -0.11877641
H        5.05730732       3.03169164      21.03868480      -0.30249294      -0.48175391       0.16200422       0.04081309       0.13216971       0.28827506
H        3.08319753       4.18335242      14.23926941       0.74047247       0.69702083      -0.14473412       0.46304229      -0.13128155      -0.14313978
H       10.42892779       3.23069422      15.00322855       0.06917711      -1.10294308      -1.43354503       0.18475232      -0.00379737       0.03782758
H       10.91101391      10.07768963      16.96545581       0.62362950      -0.08645003      -0.78065641      -0.25323820      -0.04564417      -0.05197806
H        4.75254097       2.24177135      22.77894877      -0.22510736      -1.24527770       0.10589056       0.02926153       0.08111160      -0.10193214
H        2.25984419       2.82798155      16.91492882       0.82767764      -2.26926763       2.83129266       0.13219273       0.06618241      -0.13089200
H        9.36111504       8.03712801      22.64990477      -0.41186387      -0.26573487      -0.00478803       0.02127148      -0.15031476      -0.06266100
H       10.79925172      12.06369580      15.13190523       0.69744651       0.22041919       0.48675713       0.07039943       0.10514358       0.05843819
H        2.35416608       9.65322676      16.78718528      -0.00995924       0.48309101      -0.31905138      -0.10276435       0.14108991      -0.00327950
H        1.43530586       3.98846184      16.25320121      -0.20962377       1.11075249       0.36017364      -0.15643788       0.12847490       0.09663721
H        9.13287177       9.39809365      23.90504374      -0.92082313       0.03696742       0.31715473      -0.00228724      -0.01625422       0.24943482
H        9.20020213      11.57549290      15.85383118      -1.71956164       1.41613582       0.49620116       0.41361783       0.04225748       0.09183744
H        2.90037833      10.52615792      15.34897799      -0.06964623       0.04249222      -0.08957661       0.01339418       0.32740192       0.26626819
H        3.15043023       4.46074098      16.93405188      -0.34236228      -0.31119266       0.21599137      -0.37553864       0.08114912       0.20545446
H       10.04149268       4.06223690      17.73300970      -0.50608211       2.01601676       1.67866431       0.13604185       0.26373921       0.04896221
H        9.56148348      11.40439649      14.19203548       0.08328779      -0.79469564      -0.97800243       0.21180254       0.13326339      -0.20551053
H        4.01593544       9.85033427      16.44328886       0.21406645      -0.15296854      -0.16831215       0.03320242      -0.15151093       0.16297384
C        3.14488635       9.40336122      21.71996725       1.14587075       0.18236176      -0.74169544       0.51629995      -0.16525050       1.33328451
C        9.75640377       4.06778380      15.62547757       1.89261377       1.20610216       0.92619427      -0.68634233       0.48763012       1.53361989
C        9.30052475       3.35266469      21.81011188       2.96844653      -0.60528237      -1.38301864       0.20461826      -0.04913169      -0.82495181
C        4.18807523       2.74356307      21.75632813       1.15674275       0.21683201      -0.36476707       0.25092666       0.39834751       0.10592788
Pb       6.61575931       6.41660700      18.69111365      -0.18769107      -0.16577921      -0.25262040       1.67468379       1.36025694       5.00314523
Pb       6.47821011      12.62075661      18.68218194       0.61541540       0.10635944      -0.27533329      -0.26556841       2.40354897       2.00338407
Pb       0.23511543      12.62987066      25.06247383      -0.74081454       0.13597260       0.22524503      -1.28414418      -2.63780802       7.08323682
Pb       0.22037893      13.16838077      18.83160384      -0.23785344       0.26562183      -0.37507789       0.10449892      -0.25050934       1.47547725
N        2.48773696       3.67327490      16.40511589      -0.14135187       2.30580425      -3.52749559      -0.98177293      -0.66501855      -0.20210107
N        9.72144999       9.03402509      23.08238121       1.03602929      -0.99895033       0.76390910       0.63776153      -0.14728725      -1.34063567
N       10.01297335      11.29702291      15.21445312       0.39177507      -0.83271277       0.89955763       0.19923950       0.32960274       0.18914428
N        3.07655680       9.70426501      15.97669697      -0.39885836       0.42146789       0.48262585       0.23961748      -0.00141221       0.03793343
I        7.09153728       6.68281220      22.07947730      -0.13953613       0.26481934      -0.08567899      -1.06476847       1.77301414      -1.14467790
I        5.74312199       5.83724897      15.55367418      -0.20362944      -0.15367844       0.27619202       3.26962975       0.92152208       1.92239312
I        6.00181977       3.08034791      24.59665596       0.02718998       0.43315999      -0.02034143       0.08966056      -0.96434372       0.63906936
I        6.61056995       9.81920075      13.48243616       0.20384184      -0.08124079      -0.24376858       0.19807044       0.24047126       0.05506164
I       -0.07598946       5.95317198      15.39420148       0.17231632      -0.10918762       0.33880657      -1.83484199      -3.03482248      -1.49925698
I       12.76661945       7.16954029      21.86577050      -0.06269974      -0.02022821      -0.13386311      -0.05768610       0.12675115       3.64135001
I       12.56840244       9.65534735      12.41110000       0.04434927       0.19261642      -0.07523841       1.43161325       1.80453452      -0.55412510
I        0.38284195       3.43108315      23.78784435       0.16686897      -0.18393026      -0.01438309       3.50189092      -1.40464339      -0.02434733
I        9.85520056       6.57386444      18.41897400       0.30726073       0.18076675      -0.03526655       0.09778159      -0.31675811      -0.68765368
I        3.11057215      12.32499281      13.11511188      -0.12996827      -0.10310270       0.00703942      -0.57934704      -2.12463020       2.57907983
I        3.37519013       7.34615671      24.75597740       0.23052663      -0.09689864      -0.18671157       1.61620917       0.94735471       1.02599090
I       10.05553726       6.06747366      12.18645266      -0.89062191      -0.03222084       0.19839698      -1.19652523      -0.46083598       1.07755426
H        4.13951123       8.85717963      21.94063803      -0.74451705      -0.04108168       0.08882320       0.03488976       0.27336099       0.07443183
H        8.68299351      10.02481721      21.39675224       0.44091814       0.49292655       0.38589605      -0.11027953       0.16074418       0.15441065
H        9.36251066       3.17942166      22.91289834       0.06199879       0.51641494       0.51612429       0.26723364       0.38678378      -0.01547956
H        2.98215207       7.62232249      16.13736788      -0.02532026       1.28088144      -1.66594093      -0.09401174      -0.15036030      -0.09759609
H        2.20166824       2.65035861      14.45221254       0.60855975      -0.47291828      -0.09601766       0.04126910       0.26872273       0.30709493
H        9.82853343      11.10638774      22.52041932      -0.22352783       1.09246832      -0.33313005       0.45444822      -0.26864933      -0.22275173
H       11.39866876       9.62947882      15.06219525       0.27417133      -0.91626833       0.26082330      -0.10365860       0.05231258       0.02685389
H        2.03066575       8.30049592      14.64300282       1.44252666       0.35850562       1.13717345       0.27866228       0.03480396      -0.11304751
H        3.21555806       9.88148062      20.71593314       0.00238466       0.76820371      -1.02892545       0.08206728       0.29758764       0.16109570
H       10.43343615       9.88839454      21.30725367       1.95632266      -0.60742478      -1.32355282      -0.06337304      -0.17589456      -0.16625847
H       10.00362518       2.53493993      21.30060298      -0.76980586      -0.03371757       0.82038682       0.06617217      -0.08953504       0.19671639
H        3.85289518       8.26187227      14.68329356       1.17689728      -0.05247458      -0.99101159      -0.15678817      -0.10092673       0.15154537
H        2.14513154      11.16862786      22.65609726      -0.54098286       0.02329930      -0.13558586      -0.16446811      -0.11934829       0.16758230
H       11.04524089       3.04411696      16.99526425       1.26037195      -0.92103072       0.11296240       0.05340118      -0.15526416      -0.05137896
H        9.38876847       5.72952194      21.73356621       0.01224670      -0.49815029      -0.37320438       0.19276547       0.01773058      -0.01372805
H        3.45659813       4.69083488      21.04537917       0.21527355       1.59939119       0.01898535      -0.16101893      -0.12890701      -0.11357886
H        3.81766967      11.17768451      22.69943577      -0.00915061      -0.23054828       0.46279213      -0.05014644       0.12753845       0.54437552
H        9.40999953       2.58308303      17.22902938       0.23801993       0.41554927       0.19162817       0.13759558       0.09588607      -0.20878265
H        9.98258409       4.93115803      20.29481822      -0.64526321      -0.35144444       1.31808457       0.04405087      -0.20867547       0.12000344
H        4.25769799       4.83146501      22.89814983       0.50896975      -0.29244994      -0.46404216      -0.00082211      -0.00308921       0.31106221
H        2.91899264       9.99919379      23.65539901       0.27668624       0.38012585       0.93189357      -0.03589373       0.11078653      -0.04776351
H       10.76453920       8.71889576      23.63882837      -0.15030738       0.77566100      -0.56983310       0.16586296       0.21881407       0.20285623
H       11.03739363       5.03396459      21.60535798      -0.24328192      -0.89377009       0.73531298      -0.19869709      -0.05488310      -0.24213387
H        2.60486775       4.22599620      22.49087939       0.76809718      -0.02084266      -0.69136873      -0.20931655       0.03045874      -0.29332175
C        3.06542090       3.30624429      14.89056773      -1.81202719      -0.33170071       0.95007153      -0.07764529      -1.31582150       0.41675138
C        9.66729943      10.11129859      21.96720960      -1.79811769      -0.42804421       0.88385759      -0.29557306      -0.35939264       0.29336145
C       10.55004858       9.92184238      15.85787739      -1.17549545       1.60013790      -0.03301061       0.30514629       0.50083185       0.32282639
C        2.99167952       8.40545609      15.26907284      -2.07716751      -1.91656531       1.58486955       0.03917789      -0.47164580      -0.51140219
Pb       6.64748609      12.57804325      25.11354243       0.06419394      -0.10943806      -0.03852612      -1.97466243       0.14593776      -1.58936753
Pb       6.66568813       6.26109442      25.13071117      -0.30941859      -0.04203356       0.29179175      -0.14284245      -1.09750307      -3.19792594
Pb       0.04800896       6.79357870      18.44696451       0.46488043      -0.32697467       0.53838344      -1.63547254       2.65145336       2.08661569
Pb       0.34423558       6.56469612      24.69754298      -0.55171262      -0.18013274       0.25438908       0.18989115       1.74133375      -1.59610459
N        2.97921745      10.53935806      22.76924302       0.56692583      -0.56391579       0.04433806       0.75595490      -0.03352069      -0.35495558
N       10.07353018       3.41258912      17.01405795      -1.72310428      -0.81127382      -2.85756263      -0.14244912       0.13837267       1.17803107