768
Lattice="25.625769195560288 0.1442251890105203 -0.06288156074118129 -0.08544278206367628 25.555723663810763 -0.05823012908242495 0.07213310111533067 -0.1299461261962401 25.66616038795785" Properties=species:S:1:pos:R:3:forces:R:3:momenta:R:3 pbc="T T T"
I        7.18131020       0.57265946       3.20603385       0.02555220       0.02956630      -0.06359451       0.21849220       1.68936915       0.02960384
I        6.35461146      12.32654314       9.58690964      -0.01697413      -0.07041891      -0.13441793      -0.68353745       1.24087619      -1.34556520
I        6.66648407       9.79605752       5.65885481      -0.11634236      -0.11277433      -0.00398140      -1.81227588      -2.03241851       0.75890979
I        7.17062875       3.37809918       6.38978688      -0.10815918      -0.04898819       0.16927313      -0.98947085       0.41788332       0.24866007
I        0.62776356      11.99250131       9.88775536      -0.01573096       0.16289207      -0.38085061       1.35853235       1.44007493      -1.06196804
I       12.81575625       0.77520787       3.29325007      -0.00315259      -0.15469615       0.22911654       0.50457303      -0.35313138       1.32264262
I       12.71322257       3.23776181       7.13214988       0.10662975      -0.15853272      -0.14721180       1.12017707       0.02651390      -2.18536170
I        0.72379314       9.48289601       5.89500052      -0.07039648       0.20726245       0.05593744       0.42740896       0.92627767       1.39245758
I        9.94368591      13.05572640      12.31041952       0.07114546      -0.12505418       0.06320061       0.10811958       0.74672649       0.46442280
I        3.77809408       6.07189853       7.00762299      -0.13066692      -0.02507575      -0.09799636      -0.31132409       0.66240333      -0.03984179
I        3.59639747       0.51838752       6.00986768      -0.17807716      -0.13067567       0.02161531       1.84154022       2.13466379       0.58810552
I        9.90249576      12.51491496       6.27212772       0.24303816       0.02552260       0.13186577       0.72606264       0.25471014       0.41548219
H        4.26773492       2.25335351       2.67883285       0.04612625      -0.36864219       0.01619376      -0.24519993       0.19420262       0.19040488
H        9.14812539       4.14745986       2.42094847      -0.04314523       0.10008169      -0.14310101       0.01378600      -0.23019151      -0.08107274
H        9.18111549       9.07299305       3.29460668       0.07027850       0.17721339      -0.13112651       0.14821456       0.13727740      -0.06769248
H        2.43417289       3.15373197       8.42832632      -0.70374499       0.28238995      -0.54416306       0.07253383      -0.10595757      -0.11639668
H        2.50002694       9.05927277       8.70673489      -0.51776129       0.14402250       0.04104808      -0.25139544       0.08853314      -0.18290744
H       10.96656798       4.17517583       2.46893939      -0.15626592       0.18289268       0.23097350      -0.01078508       0.34892206       0.04088967
H        8.55708276       3.06617421       9.12983052       0.58385125       0.10445607       0.61975193      -0.04418804      -0.20679656       0.13783486
H        4.17676768       2.44193144       8.67677686       1.13532311       0.62250521      -0.64662983       0.01025094       0.07075424      -0.05690133
H        3.56666687       3.79538511       2.15912631       0.05567911       1.16852867      -0.61628709       0.04888746      -0.04607404      -0.03498797
H       10.15139087       2.78307291       1.69302810      -0.24953008       0.66149526       0.51303644      -0.16289639       0.04273915      -0.02644972
H       10.03031100       9.93620594       4.61960811       0.01359004       0.03890230       0.47509174       0.04361810      -0.09598344       0.03696912
H        2.80617166       1.98010393       9.78649917       0.09665992      -0.30984201       0.48018509      -0.01227062      -0.04577031       0.00880165
H        3.93526585       3.02194920       5.01692530       0.25476745      -1.08573601       0.91315767      -0.02711472       0.12685154       0.17969605
H        9.87104325       7.99460116      11.03205923      -0.06506006      -0.44754057       0.31017803      -0.01134774      -0.08376333      -0.08806646
H       10.82558088      11.59091861       3.09094486      -0.32396222       0.14709658       0.10169681      -0.01238958      -0.15326934       0.11298527
H        2.72341090       9.89582286       4.40223431      -1.01264652       0.47027229       0.57168870      -0.32801663       0.05444971       0.17813787
H        3.11057360       4.39393198       4.54005654       1.03491543      -0.57512869      -0.21433973       0.06909234      -0.11199286       0.10531786
H        9.15267195       9.51144709      11.38008763       0.39531567      -0.19070801      -0.17549776       0.06020436       0.09561987       0.01376599
H        9.12754472      11.54700388       2.96040550      -0.15848519       0.23206633      -0.20396460      -0.01122341       0.15004912      -0.06622094
H        3.52313570      10.60166486       2.99460704      -0.54751324       0.13015445       0.63309460       0.11951251      -0.11933846      -0.02435501
H        4.77357619       4.22229731       4.22262067       1.09518968       0.61389138       0.12781195      -0.12447486       0.06914429      -0.07751642
H        9.91587792       3.52781390       4.62634868      -0.22030706      -0.78900824      -0.38492321       0.00675287      -0.21133555       0.06404400
H       10.18091615      10.81523974       1.78473874      -0.46341406       0.23563675      -0.18493378       0.05255630       0.07615754      -0.02708152
H        4.40314848       9.99271995       4.27451678       0.02517844       0.03343291       0.30929003      -0.05734841      -0.03753292      -0.09773695
C        3.48074692       9.53693678       8.85234989       0.56452427       0.48294884      -0.81904152       0.08134680       0.08908268       0.17938446
C       10.05853740       3.55676108       2.52040205      -0.00297011      -0.93646631      -1.03181511       0.25408204       0.35674931       0.14405819
C        9.62979559       3.34682851       9.46554223       0.63314884      -0.82729146      -1.34895454       0.20614531      -0.08836566      -0.15972320
C        3.25072672       2.87329306       9.15731654      -0.81267466      -0.70913792       1.19174773       0.19233075      -0.14393570       0.68127122
Pb       6.93579886       6.50683585       6.25441538       0.10355192       0.08942765       0.06813832      -1.31784826      -0.01850736       0.78518060
Pb       6.68635124      12.89243266       6.23376291       0.12197826       0.03018136      -0.12885013       2.45503229      -1.17886056      -0.44981516
Pb       0.47357922      12.91474050      12.92449519      -0.25378701      -0.18656220       0.04336389       1.68641510      -1.04315699       0.07707116
Pb       0.30030464      12.90551900       6.64458192      -0.06139870      -0.11688639      -0.16670161       0.17055021       0.12404421      -0.18173034
N        3.91043425       3.69247827       4.27765138      -2.52589678       1.33923781      -1.02212133      -0.31883706       0.37060956      -0.00487274
N        9.98777269       9.03631037      10.89195919      -0.25900969       0.33138408       0.59099485       0.22420509      -0.16099305       0.63984005
N       10.00438981      11.01481597       2.80005073       0.76846538      -0.78308312       0.30853968      -0.06386619       0.36504767      -0.65293577
N        3.50068625       9.87359584       3.75914532       1.88584537      -0.10685203      -1.44121572       0.32903307      -0.33942293      -0.01967624
I        6.91221611       6.80342458       9.51864321       0.16636115       0.00980886      -0.04796269      -0.70814206       1.17722154      -1.05907200
I        6.44327042       5.98764404       3.11116722      -0.00504310      -0.01411717      -0.06345099       2.00836755       1.00310621      -0.11869604
I        6.33046159       3.37916927      12.18793880      -0.04900956      -0.22623375       0.03152142      -0.28498718       0.88622233      -0.07545233
I        7.08943414       9.71961172       0.52364193       0.10611477       0.11857863      -0.17125511       0.64605368       0.90750457       1.76852766
I        1.05345342       5.51614335       3.23801028      -0.06566312       0.10514800      -0.06829413      -1.79182579      -1.19250040       0.17620674
I       12.89870887       6.77046759       9.49900845       0.11347329       0.02292064       0.12600052       1.09967482      -1.71451396      -1.51200851
I       12.70042241       9.81360047       0.37235731      -0.00624927      -0.10396050       0.07356663       2.37631126      -2.00880933       1.30448190
I        1.00207264       3.27670164      12.29229733      -0.04040938      -0.01142762      -0.05239755      -1.15275796       1.01031877      -1.09858252
I       10.15184707       6.21822927       5.70181285      -0.00088281       0.06678967      -0.08443580       1.15535846      -0.54445305      -0.36564044
I        3.56401970      11.99731334       0.60870862      -0.10717092       0.13565236       0.08634383      -0.30701191       0.79361756      -0.54850282
I        3.59118279       6.98420871      12.05432353      -0.07770510       0.09462639       0.03642163       2.33734365      -0.21374157       2.67472114
I       10.02826626       5.89021134      25.35045986       0.07274230       0.05089930       0.00631962       1.49766442      -2.39175383       0.37503380
H        4.23180422       8.70721238       8.70769785       0.21089992       0.32087622       0.26992461       0.13259519      -0.14307553      -0.13975533
H        9.14585835       9.09649138       8.90204580       0.15783056      -0.01893874       0.29125365      -0.16788593       0.11924667      -0.03687778
H        9.77195042       3.51926529      10.52810618      -0.34119722       0.00321642       0.53869387       0.11164566       0.09101171       0.06255583
H        3.77566616       7.76717059       3.73426274      -0.20499354      -0.61571128       0.14997088       0.15348834       0.08622227      -0.03054311
H        2.42630936       2.70667561       2.96795431       0.55407821      -0.06503255       0.12175719      -0.04510605       0.05559474      -0.03489669
H       10.25956832      10.50273364       9.32249270       0.41513709      -0.67898926      -0.54082123       0.10275280      -0.08002523       0.28097137
H       10.98660886       9.23682582       3.28162051       0.16624299      -0.35652172       0.03014382       0.03550098       0.10125019      -0.03710514
H        2.49709244       8.54083821       2.53894985       0.78707922      -0.65682681       0.50978477       0.07395122       0.17571294      -0.03127817
H        3.65683555      10.39198938       8.11644570      -0.13576337      -0.78436948       0.41569960      -0.08096821      -0.02335512      -0.01349605
H       10.92347535       8.65645406       8.97946184       0.60211296       0.50104895      -0.57381159      -0.23755376      -0.07592301      -0.01268006
H       10.39395449       2.57988960       9.09353661      -0.54592437      -0.08262685       0.21173009      -0.04520080       0.08842216       0.10025349
H        4.30322933       8.69667795       2.22546394       0.28952301      -0.27493591      -0.17945771       0.12027539      -0.27884984      -0.04659487
H        2.79743174      10.83095711      10.27150155      -0.42558399       0.55840231       0.25227466       0.22077251      -0.21927391      -0.02133274
H       10.93829475       2.34716333       3.89285712       0.50588253      -0.36094848       0.30171430       0.06219438      -0.08558717       0.03180465
H        9.31552737       5.39854085       9.17850383       0.30905248       0.21187262      -0.57345699       0.14749437      -0.11341669      -0.22852026
H        3.82574789       4.93627808       9.43786566      -0.12606589      -0.10113468       0.39956313       0.16376378       0.01024055       0.19470494
H        4.49054418      10.68375815      10.31422656      -0.09262484       0.13921086      -0.08449733       0.15313440      -0.14086013      -0.08323850
H        9.31350889       2.03269470       3.87570256      -0.65930805       0.11582752      -0.00659540       0.06196103       0.16975971      -0.14608597
H        9.83025601       4.52102597       7.72337465      -0.06193009       0.32482321       0.04724070      -0.03350035      -0.08554378      -0.02040856
H        4.48792359       3.83910256      10.61701172       0.41542507       0.22739491       0.58564747      -0.03260744      -0.01946925      -0.00993933
H        3.50678991       9.48747504      10.97644357       0.01646210      -0.09911914      -0.10358875      -0.11985393      -0.16639910       0.07462060
H       10.85584456       9.30338050      11.44910409      -0.56665645      -0.02934894      -0.50002963      -0.02775884       0.17623301      -0.06805589
H       11.00654730       4.95453309       8.92098187       0.27748046       0.46817025       0.02479052       0.01156597       0.04542031      -0.03267796
H        2.80148285       4.31775782      10.69106633       0.04545448      -0.11035392      -0.06822546       0.14709245      -0.12860089      -0.10148706
C        3.52816284       3.07258654       2.92961915      -0.43882744      -1.24113082       0.47568346      -0.46089229      -0.25891037      -0.13676744
C       10.10431538       9.36495463       9.38881620      -0.81845755       0.83821218       0.77157507      -0.14819827      -0.45149485       0.34538954
C       10.04371485       9.70239309       3.56287633      -0.09354873       0.42229898      -0.53632767       0.04549591       0.40801744       0.41632863
C        3.53044072       8.56535244       3.01935040      -1.16224540       1.27350599      -0.67348739      -0.02395779       0.03189628       0.18027654
Pb       6.61923010      12.99105419      12.42928648       0.31937054      -0.13721275       0.45044253      -2.42037126       1.04220365      -1.10937605
Pb       6.67668577       6.56143696      12.84868952       0.52040638       0.05648163      -0.03637329       1.40807466       1.88112284       0.86221077
Pb       0.65688452       6.35905708       6.31399663      -0.17303495       0.06737778      -0.15910296       1.21599772      -1.03393170      -1.26357839
Pb       0.66648043       6.35381521      12.67690892      -0.56709014       0.05547088       0.23736220       2.29443728      -0.66822863      -1.51615812
N        3.58384029      10.17250688      10.19856647       0.45157528      -0.87560963       0.05781330       0.04371199      -0.44586601       0.51422160
N       10.01851675       2.82447401       3.82354592       0.80131369       1.06598462       0.57696533      -0.76999893       0.24773091      -0.27943086
N        9.98728454       4.65345207       8.75179894      -0.99840819      -0.23681640       0.78972210      -0.26008495       0.05716814       0.10028184
N        3.60204082       4.08087485      10.05068562       0.14609310       0.04240671      -1.53162766      -0.73998404      -0.05432646       0.18641102
I        7.21737675       0.50768640      16.03911404       0.02555220       0.02956630      -0.06359451       0.21849220       1.68936915       0.02960384
I        6.39067801      12.26157008      22.41998983      -0.01697413      -0.07041891      -0.13441793      -0.68353745       1.24087619      -1.34556520
I        6.70255062       9.73108446      18.49193500      -0.11634236      -0.11277433      -0.00398140      -1.81227588      -2.03241851       0.75890979
I        7.20669530       3.31312612      19.22286707      -0.10815918      -0.04898819       0.16927313      -0.98947085       0.41788332       0.24866007
I        0.66383011      11.92752825      22.72083555      -0.01573096       0.16289207      -0.38085061       1.35853235       1.44007493      -1.06196804
I       12.85182280       0.71023481      16.12633026      -0.00315259      -0.15469615       0.22911654       0.50457303      -0.35313138       1.32264262
I       12.74928912       3.17278875      19.96523007       0.10662975      -0.15853272      -0.14721180       1.12017707       0.02651390      -2.18536170
I        0.75985969       9.41792295      18.72808071      -0.07039648       0.20726245       0.05593744       0.42740896       0.92627767       1.39245758
I        9.97975246      12.99075334      25.14349971       0.07114546      -0.12505418       0.06320061       0.10811958       0.74672649       0.46442280
I        3.81416063       6.00692547      19.84070318      -0.13066692      -0.02507575      -0.09799636      -0.31132409       0.66240333      -0.03984179
I        3.63246402       0.45341446      18.84294787      -0.17807716      -0.13067567       0.02161531       1.84154022       2.13466379       0.58810552
I        9.93856231      12.44994190      19.10520791       0.24303816       0.02552260       0.13186577       0.72606264       0.25471014       0.41548219
H        4.30380147       2.18838045      15.51191304       0.04612625      -0.36864219       0.01619376      -0.24519993       0.19420262       0.19040488
H        9.18419194       4.08248680      15.25402866      -0.04314523       0.10008169      -0.14310101       0.01378600      -0.23019151      -0.08107274
H        9.21718204       9.00801999      16.12768687       0.07027850       0.17721339      -0.13112651       0.14821456       0.13727740      -0.06769248
H        2.47023944       3.08875891      21.26140651      -0.70374499       0.28238995      -0.54416306       0.07253383      -0.10595757      -0.11639668
H        2.53609349       8.99429971      21.53981508      -0.51776129       0.14402250       0.04104808      -0.25139544       0.08853314      -0.18290744
H       11.00263453       4.11020277      15.30201958      -0.15626592       0.18289268       0.23097350      -0.01078508       0.34892206       0.04088967
H        8.59314931       3.00120115      21.96291071       0.58385125       0.10445607       0.61975193      -0.04418804      -0.20679656       0.13783486
H        4.21283423       2.37695838      21.50985705       1.13532311       0.62250521      -0.64662983       0.01025094       0.07075424      -0.05690133
H        3.60273342       3.73041205      14.99220650       0.05567911       1.16852867      -0.61628709       0.04888746      -0.04607404      -0.03498797
H       10.18745742       2.71809985      14.52610829      -0.24953008       0.66149526       0.51303644      -0.16289639       0.04273915      -0.02644972
H       10.06637755       9.87123288      17.45268830       0.01359004       0.03890230       0.47509174       0.04361810      -0.09598344       0.03696912
H        2.84223821       1.91513087      22.61957936       0.09665992      -0.30984201       0.48018509      -0.01227062      -0.04577031       0.00880165
H        3.97133240       2.95697614      17.85000549       0.25476745      -1.08573601       0.91315767      -0.02711472       0.12685154       0.17969605
H        9.90710980       7.92962810      23.86513942      -0.06506006      -0.44754057       0.31017803      -0.01134774      -0.08376333      -0.08806646
H       10.86164743      11.52594555      15.92402505      -0.32396222       0.14709658       0.10169681      -0.01238958      -0.15326934       0.11298527
H        2.75947745       9.83084980      17.23531450      -1.01264652       0.47027229       0.57168870      -0.32801663       0.05444971       0.17813787
H        3.14664015       4.32895892      17.37313673       1.03491543      -0.57512869      -0.21433973       0.06909234      -0.11199286       0.10531786
H        9.18873850       9.44647403      24.21316782       0.39531567      -0.19070801      -0.17549776       0.06020436       0.09561987       0.01376599
H        9.16361127      11.48203082      15.79348569      -0.15848519       0.23206633      -0.20396460      -0.01122341       0.15004912      -0.06622094
H        3.55920225      10.53669180      15.82768723      -0.54751324       0.13015445       0.63309460       0.11951251      -0.11933846      -0.02435501
H        4.80964274       4.15732425      17.05570086       1.09518968       0.61389138       0.12781195      -0.12447486       0.06914429      -0.07751642
H        9.95194447       3.46284084      17.45942887      -0.22030706      -0.78900824      -0.38492321       0.00675287      -0.21133555       0.06404400
H       10.21698270      10.75026668      14.61781893      -0.46341406       0.23563675      -0.18493378       0.05255630       0.07615754      -0.02708152
H        4.43921503       9.92774689      17.10759697       0.02517844       0.03343291       0.30929003      -0.05734841      -0.03753292      -0.09773695
C        3.51681347       9.47196372      21.68543008       0.56452427       0.48294884      -0.81904152       0.08134680       0.08908268       0.17938446
C       10.09460395       3.49178802      15.35348224      -0.00297011      -0.93646631      -1.03181511       0.25408204       0.35674931       0.14405819
C        9.66586214       3.28185545      22.29862242       0.63314884      -0.82729146      -1.34895454       0.20614531      -0.08836566      -0.15972320
C        3.28679327       2.80832000      21.99039673      -0.81267466      -0.70913792       1.19174773       0.19233075      -0.14393570       0.68127122
Pb       6.97186541       6.44186279      19.08749557       0.10355192       0.08942765       0.06813832      -1.31784826      -0.01850736       0.78518060
Pb       6.72241779      12.82745960      19.06684310       0.12197826       0.03018136      -0.12885013       2.45503229      -1.17886056      -0.44981516
Pb       0.43751267      12.97971356       0.09141500      -0.25378701      -0.18656220       0.04336389       1.68641510      -1.04315699       0.07707116
Pb       0.33637119      12.84054594      19.47766211      -0.06139870      -0.11688639      -0.16670161       0.17055021       0.12404421      -0.18173034
N        3.94650080       3.62750521      17.11073157      -2.52589678       1.33923781      -1.02212133      -0.31883706       0.37060956      -0.00487274
N       10.02383924       8.97133731      23.72503938      -0.25900969       0.33138408       0.59099485       0.22420509      -0.16099305       0.63984005
N       10.04045636      10.94984291      15.63313092       0.76846538      -0.78308312       0.30853968      -0.06386619       0.36504767      -0.65293577
N        3.53675280       9.80862278      16.59222551       1.88584537      -0.10685203      -1.44121572       0.32903307      -0.33942293      -0.01967624
I        6.94828266       6.73845152      22.35172340       0.16636115       0.00980886      -0.04796269      -0.70814206       1.17722154      -1.05907200
I        6.47933697       5.92267098      15.94424741      -0.00504310      -0.01411717      -0.06345099       2.00836755       1.00310621      -0.11869604
I        6.36652814       3.31419621      25.02101899      -0.04900956      -0.22623375       0.03152142      -0.28498718       0.88622233      -0.07545233
I        7.12550069       9.65463866      13.35672212       0.10611477       0.11857863      -0.17125511       0.64605368       0.90750457       1.76852766
I        1.08951997       5.45117029      16.07109047      -0.06566312       0.10514800      -0.06829413      -1.79182579      -1.19250040       0.17620674
I       12.93477542       6.70549453      22.33208864       0.11347329       0.02292064       0.12600052       1.09967482      -1.71451396      -1.51200851
I       12.73648896       9.74862741      13.20543750      -0.00624927      -0.10396050       0.07356663       2.37631126      -2.00880933       1.30448190
I        1.03813919       3.21172858      25.12537752      -0.04040938      -0.01142762      -0.05239755      -1.15275796       1.01031877      -1.09858252
I       10.18791362       6.15325621      18.53489304      -0.00088281       0.06678967      -0.08443580       1.15535846      -0.54445305      -0.36564044
I        3.60008625      11.93234028      13.44178881      -0.10717092       0.13565236       0.08634383      -0.30701191       0.79361756      -0.54850282
I        3.62724934       6.91923565      24.88740372      -0.07770510       0.09462639       0.03642163       2.33734365      -0.21374157       2.67472114
I        9.99219971       5.95518441      12.51737966       0.07274230       0.05089930       0.00631962       1.49766442      -2.39175383       0.37503380
H        4.26787077       8.64223932      21.54077804       0.21089992       0.32087622       0.26992461       0.13259519      -0.14307553      -0.13975533
H        9.18192490       9.03151832      21.73512599       0.15783056      -0.01893874       0.29125365      -0.16788593       0.11924667      -0.03687778
H        9.80801697       3.45429223      23.36118637      -0.34119722       0.00321642       0.53869387       0.11164566       0.09101171       0.06255583
H        3.81173271       7.70219753      16.56734293      -0.20499354      -0.61571128       0.14997088       0.15348834       0.08622227      -0.03054311
H        2.46237591       2.64170255      15.80103450       0.55407821      -0.06503255       0.12175719      -0.04510605       0.05559474      -0.03489669
H       10.29563487      10.43776058      22.15557289       0.41513709      -0.67898926      -0.54082123       0.10275280      -0.08002523       0.28097137
H       11.02267541       9.17185276      16.11470070       0.16624299      -0.35652172       0.03014382       0.03550098       0.10125019      -0.03710514
H        2.53315899       8.47586515      15.37203004       0.78707922      -0.65682681       0.50978477       0.07395122       0.17571294      -0.03127817
H        3.69290210      10.32701632      20.94952589      -0.13576337      -0.78436948       0.41569960      -0.08096821      -0.02335512      -0.01349605
H       10.95954190       8.59148100      21.81254203       0.60211296       0.50104895      -0.57381159      -0.23755376      -0.07592301      -0.01268006
H       10.43002104       2.51491654      21.92661680      -0.54592437      -0.08262685       0.21173009      -0.04520080       0.08842216       0.10025349
H        4.33929588       8.63170489      15.05854413       0.28952301      -0.27493591      -0.17945771       0.12027539      -0.27884984      -0.04659487
H        2.83349829      10.76598405      23.10458174      -0.42558399       0.55840231       0.25227466       0.22077251      -0.21927391      -0.02133274
H       10.97436130       2.28219027      16.72593731       0.50588253      -0.36094848       0.30171430       0.06219438      -0.08558717       0.03180465
H        9.35159392       5.33356779      22.01158402       0.30905248       0.21187262      -0.57345699       0.14749437      -0.11341669      -0.22852026
H        3.86181444       4.87130502      22.27094585      -0.12606589      -0.10113468       0.39956313       0.16376378       0.01024055       0.19470494
H        4.52661073      10.61878509      23.14730675      -0.09262484       0.13921086      -0.08449733       0.15313440      -0.14086013      -0.08323850
H        9.34957544       1.96772164      16.70878275      -0.65930805       0.11582752      -0.00659540       0.06196103       0.16975971      -0.14608597
H        9.86632256       4.45605291      20.55645484      -0.06193009       0.32482321       0.04724070      -0.03350035      -0.08554378      -0.02040856
H        4.52399014       3.77412950      23.45009191       0.41542507       0.22739491       0.58564747      -0.03260744      -0.01946925      -0.00993933
H        3.54285646       9.42250198      23.80952376       0.01646210      -0.09911914      -0.10358875      -0.11985393      -0.16639910       0.07462060
H       10.89191111       9.23840744      24.28218428      -0.56665645      -0.02934894      -0.50002963      -0.02775884       0.17623301      -0.06805589
H       11.04261385       4.88956003      21.75406206       0.27748046       0.46817025       0.02479052       0.01156597       0.04542031      -0.03267796
H        2.83754940       4.25278476      23.52414652       0.04545448      -0.11035392      -0.06822546       0.14709245      -0.12860089      -0.10148706
C        3.56422939       3.00761348      15.76269934      -0.43882744      -1.24113082       0.47568346      -0.46089229      -0.25891037      -0.13676744
C       10.14038193       9.29998157      22.22189639      -0.81845755       0.83821218       0.77157507      -0.14819827      -0.45149485       0.34538954
C       10.07978140       9.63742003      16.39595652      -0.09354873       0.42229898      -0.53632767       0.04549591       0.40801744       0.41632863
C        3.56650727       8.50037938      15.85243059      -1.16224540       1.27350599      -0.67348739      -0.02395779       0.03189628       0.18027654
Pb       6.65529665      12.92608113      25.26236667       0.31937054      -0.13721275       0.45044253      -2.42037126       1.04220365      -1.10937605
Pb       6.64061922       6.62641002       0.01560933       0.52040638       0.05648163      -0.03637329       1.40807466       1.88112284       0.86221077
Pb       0.69295107       6.29408402      19.14707682      -0.17303495       0.06737778      -0.15910296       1.21599772      -1.03393170      -1.26357839
Pb       0.70254698       6.28884215      25.50998911      -0.56709014       0.05547088       0.23736220       2.29443728      -0.66822863      -1.51615812
N        3.61990684      10.10753382      23.03164666       0.45157528      -0.87560963       0.05781330       0.04371199      -0.44586601       0.51422160
N       10.05458330       2.75950095      16.65662611       0.80131369       1.06598462       0.57696533      -0.76999893       0.24773091      -0.27943086