768
Lattice="38.16606883306081 0.7708101007676014 0.3666927628512125 -0.3296249581406084 22.360322942442707 0.08526197331993467 -0.1800967783537251 -0.06462717078727989 19.468533293292147" Properties=species:S:1:pos:R:3:forces:R:3:momenta:R:3 energy=-3353.551256655819 stress="0.0031373758536426127 0.000123655795233292 -1.460951368865059e-06 0.000123655795233292 0.0033866891804901315 2.5710353361754228e-05 -1.460951368865059e-06 2.5710353361754228e-05 0.003974751498037876" free_energy=-3353.551256655819 pbc="T T T"
I       17.26310118       6.61732233       4.33632787       0.00000588      -0.00000386      -0.00000581       1.51645034      -0.76261376       0.25509440
I       17.89123545      10.46720834       1.92511324      -0.00002588       0.00001035       0.00002627       1.87094706      -0.24528404       2.47110682
I        8.30297730      12.02411557       4.27222207       0.00003982      -0.00003761       0.00003184      -1.35102613      -0.94614215      -0.83573715
I        7.76833231       4.67504889       1.80585862       0.00002029       0.00001021       0.00000668      -0.39234822       0.35995544       0.76077017
I       15.69613343       3.02395001       1.87355854      -0.00000245       0.00001297       0.00001192       0.14585828      -1.05547485      -0.79432593
I        0.37523744      13.67515214       4.20468443      -0.00003227      -0.00000164      -0.00002635       1.02988533       0.66076474       1.57074432
I       10.01577093       8.48237430       1.83984834       0.00000467       0.00000342      -0.00000145       0.00180152      -1.73647531      -0.57390779
I        6.05564132       8.21677208       4.23825584       0.00001978      -0.00002070       0.00000638       0.50432155      -0.96539877       0.62788540
I        2.13360507       6.12663350       1.75759977      -0.00001022      -0.00002433      -0.00004349       0.24567142       0.57104575      -0.37092303
I       13.93778130      10.57242320       4.32062880       0.00001721       0.00000171      -0.00002992      -0.92716589      -0.34285704       1.82765319
I        4.38422826      11.78403120       1.80185219      -0.00001418       0.00002255       0.00001156      -0.41554747      -0.36218099       0.36395059
I       11.68718361       4.91508282       4.27624833       0.00000697       0.00001088       0.00002830       0.33391038       0.54090609       1.10118205
H        4.78928058       4.73682875       3.31676163      -0.00000704       0.00001146      -0.00005761      -0.13406328       0.09056376      -0.07311629
H       11.28196449      11.96200866       2.76123136       0.00001171      -0.00002195       0.00004135      -0.08026400      -0.08127947      -0.04190421
H        3.01215765       9.34265771       4.21277568       0.00002326      -0.00003259      -0.00003751       0.03494494       0.02197897       0.04795218
H       14.31338883       6.44540905       2.76884719       0.00001988      -0.00001708      -0.00001008      -0.13039629       0.11511132       0.00645391
H        3.54483735       3.79079927       4.19755500      -0.00005380      -0.00003144      -0.00003572       0.06263284       0.08653888      -0.21391847
H       11.29653087      11.96852768       0.97354301      -0.00003642      -0.00001880      -0.00000199      -0.05551457       0.07201351      -0.04401420
H        1.75787101      10.25381517       3.30929382      -0.00001635      -0.00002332       0.00000190       0.01030163      -0.12962625       0.04942154
H       13.05907381       7.35654119       1.86537744       0.00005147      -0.00000983       0.00002082      -0.11284583       0.21335501       0.12631833
H        4.77513568       4.73072186       5.10444567       0.00000529       0.00001314       0.00008018      -0.19240235      -0.16643128      -0.02710788
H       12.52657777      12.90828528       1.88094366      -0.00000522       0.00001205      -0.00002105      -0.18099177       0.19588511      -0.18064045
H        1.73939056      10.24737215       5.09673384      -0.00003479       0.00000165       0.00002974       0.01856831      -0.02856783       0.10728774
H       14.33178979       6.45175792       0.98140368       0.00000201      -0.00001210      -0.00002548       0.00932796      -0.03370648       0.07049153
H        5.30580782       2.33210151       5.03655846       0.00000329      -0.00000165       0.00003506       0.02399123      -0.02622118      -0.05655923
H       10.76557564      14.36696776       1.04172000      -0.00000981      -0.00001461      -0.00004834       0.10607430      -0.08213057       0.03582998
H        1.27658647       7.83459038       5.01960641      -0.00002179      -0.00000175       0.00000747       0.10544169      -0.08032579      -0.03342717
H       14.77783760       8.85860679       2.71858954      -0.00002602       0.00001686       0.00001792       0.05640380      -0.17749472       0.10655191
H        6.47953430       3.21090227       4.21882179      -0.00000646       0.00001907      -0.00002946       0.03878778       0.06011330       0.09154717
H       10.75208440      14.36108710       2.70174536       0.00001548       0.00000776      -0.00000134       0.14069867       0.03299063       0.16008488
H        1.29351831       7.84055676       3.35945171      -0.00001881       0.00000027       0.00003821      -0.18438860      -0.10295263      -0.18117350
H       14.79459023       8.86457677       1.05843170       0.00001546       0.00000963      -0.00000076       0.01916949      -0.12666914       0.06758709
H        5.31926704       2.33788942       3.37653177      -0.00001590      -0.00004793      -0.00003410       0.14106153       0.02672403      -0.05756618
H        9.59186514      13.48806976       1.85938875      -0.00002450       0.00001154      -0.00002094      -0.03014664       0.17450177      -0.27480906
H        0.09490946       8.68135237       4.18023685      -0.00000754      -0.00002696      -0.00000956      -0.08482386      -0.15933232       0.12720010
H       15.97633869       8.01779078       1.89766902      -0.00000805       0.00001825       0.00000310       0.09322726       0.02318934      -0.11478992
C        4.58401257       4.13521008       4.20698854       0.00001015       0.00008976       0.00002866      -0.42539428       0.50175371       0.36968125
C       11.48741625      12.56383550       1.87118684       0.00002842       0.00001273       0.00003285      -0.24699308      -0.19052534       0.33426717
C        1.96363615       9.65764320       4.20309490       0.00002562       0.00003387      -0.00000394       0.06836168       0.04989360      -0.32895791
C       14.10759158       7.04153438       1.87502320      -0.00001939       0.00004317       0.00001928       0.27940009       1.30335966       0.00807221
Pb      37.64748831       5.19740618       2.09180609       0.00003764       0.00002017       0.00000640      -1.00315489       0.65481402      -0.36171941
Pb      16.58993634      12.27247333       4.35310988      -0.00000907      -0.00001242      -0.00002605      -2.32696669      -2.33680371       1.04601236
Pb       7.09597897      10.18264667       1.82087656       0.00000547       0.00000898      -0.00001173      -0.18807048       1.25201908      -1.06408356
Pb       8.97543796       6.51649136       4.25719173      -0.00003799      -0.00003305       0.00000682       1.30767031       2.13248948       2.19330155
N        5.48255137       2.94891729       4.21006937       0.00000609      -0.00000669       0.00001344       0.63641669      -0.11418138      -0.16838069
N       10.58883518      13.75009885       1.86817211      -0.00000804       0.00000804      -0.00002237      -0.51863408       0.13608220      -0.08354529
N        1.09862581       8.44658441       4.18981318       0.00003833       0.00000709       0.00002636       0.16061372       0.10422615       0.22616331
N       14.97262494       8.25257902       1.88820708       0.00004160      -0.00000725      -0.00001272       0.21776164       0.61244164      -0.13948597
I       17.21809640       6.60114901       9.20356572      -0.00001812      -0.00001810       0.00001130      -0.84599377      -2.09043756       0.13753839
I       17.84630627      10.45107244       6.79228149      -0.00003636       0.00000124       0.00001680      -1.23708907      -2.14625212      -0.01125706
I        8.25795910      12.00799477       9.13939248       0.00000070      -0.00003850      -0.00001566      -0.89552429      -1.44899414       0.43340867
I        7.72341089       4.65884471       6.67298481      -0.00001296       0.00000108       0.00001664      -1.41299212       1.16146654       0.74161534
I       15.65101366       3.00775985       6.74066110       0.00005330       0.00005615       0.00000389       3.06633743       0.60294905       0.64539087
I        0.33019269      13.65900461       9.07171421      -0.00001087      -0.00000127      -0.00000166      -1.05016939      -0.96187860       2.60412738
I        9.97079374       8.46618816       6.70700876      -0.00000879      -0.00000492      -0.00001990      -0.07963416      -0.63221413       1.20684745
I        6.01063827       8.20056746       9.10536922       0.00001036       0.00001260      -0.00001387       1.18744329      -1.14739016      -1.97192378
I        2.08843542       6.11063068       6.62459999      -0.00003939      -0.00004060       0.00002751       0.09689567       1.44533494       1.29832269
I       13.89275216      10.55627424       9.18775135       0.00001905       0.00000901       0.00001599      -0.49238400       0.79108570       0.53487081
I        4.33915638      11.76766564       6.66909685      -0.00002363       0.00004832      -0.00002165       1.75754235       0.31437906       1.15993462
I       11.64219881       4.89895136       9.14336094       0.00003089       0.00002397       0.00000631      -0.22927764       1.35926560      -0.26769393
H        3.49968433       3.77468100       9.06458551       0.00001185       0.00002143       0.00002016       0.23482805      -0.09251381      -0.09301038
H       11.23723970      11.94593580       7.62858457      -0.00002846      -0.00000357       0.00001030      -0.00881694      -0.01859277       0.03302490
H        1.71277237      10.23746851       8.17654003       0.00001532      -0.00001268      -0.00000617      -0.09745519      -0.05426513       0.14434462
H       14.28701263       6.43565991       5.84856152      -0.00001047       0.00001570      -0.00000731       0.29823821       0.03928732      -0.07862094
H        4.73004020       4.71478920       9.97122015       0.00000533       0.00001759       0.00000545      -0.04215053       0.02143180      -0.11745375
H       11.25100574      11.95198148       5.84088996       0.00001483       0.00003963       0.00000325       0.11256754      -0.04446598       0.04500733
H        1.69448177      10.23107999       9.96398117       0.00002468       0.00004484       0.00004632       0.26306250       0.11850283       0.12049790
H       14.26886475       6.42922224       7.63600499       0.00002025      -0.00006272       0.00004435       0.09874295      -0.14078181      -0.03139901
H        4.74395802       4.72066629       8.18351870       0.00002525       0.00003267       0.00002521      -0.01393782       0.15768829      -0.03142152
H       12.48155375      12.89185703       6.74750571       0.00001681       0.00002015       0.00000527      -0.13972117       0.00266285       0.02760673
H        2.96712085       9.32627833       9.07991741       0.00001766       0.00002544      -0.00004780      -0.10479340       0.12185489       0.01528793
H       13.01431288       7.34024584       6.73276723      -0.00006972       0.00002312      -0.00003984       0.36232914       0.03610387      -0.08379500
H        6.43441206       3.19496217       9.08542861       0.00004279      -0.00001331       0.00001816      -0.16319697      -0.15269652       0.03943695
H       10.70737813      14.34493456       7.56882488      -0.00000249      -0.00002189      -0.00002757       0.03577886       0.24200796       0.00653422
H        1.23162549       7.81827819       9.88693845      -0.00002041       0.00002009      -0.00002068      -0.02928162       0.11118349      -0.07999768
H       14.73291068       8.84253700       7.58575068       0.00002379      -0.00002535       0.00000322       0.00539419       0.05862256      -0.13798368
H        5.27401275       2.32170999       8.24358452       0.00000842      -0.00000620       0.00002177       0.10776368       0.07084395      -0.21937845
H        9.54689050      13.47192475       6.72684729       0.00000969       0.00003072       0.00002456       0.11016928      -0.11737285      -0.02302253
H        1.24827266       7.82428817       8.22677822       0.00003329      -0.00003022      -0.00005434      -0.21601481       0.04778682      -0.05275596
H       14.74961276       8.84847193       5.92559290       0.00001964       0.00006291      -0.00003640      -0.04186708      -0.00312802      -0.09121492
H        5.26091854       2.31624310       9.90361490      -0.00001729      -0.00002173      -0.00000738       0.16948045       0.00312202      -0.30666014
H       10.72048664      14.35062042       5.90879429      -0.00001574       0.00002380      -0.00001997      -0.02695553       0.04942086       0.13311522
H        0.04983905       8.66510820       9.04779484       0.00000185      -0.00002149       0.00002508      -0.19216844      -0.08904819      -0.02512818
H       15.93149820       8.00186512       6.76480268      -0.00002809      -0.00000669       0.00001498      -0.16072355       0.17452202      -0.16471759
C        4.53884195       4.11915797       9.07385685      -0.00004400      -0.00006043      -0.00000770       0.03091908       0.19382292       0.59089182
C       11.44235451      12.54750977       6.73829093       0.00000231      -0.00002035       0.00001196       0.00444857      -0.00183867      -0.41493811
C        1.91861403       9.64131717       9.07033664      -0.00003343      -0.00001697       0.00005039       0.07426738      -0.06320545      -0.33053917
C       14.06286669       7.02536607       6.74224177      -0.00002058      -0.00003455       0.00003389       0.69642859      -0.20104692       0.10421452
Pb      37.60240839       5.18130500       6.95890996       0.00003115       0.00002201      -0.00001602      -0.57653646      -0.17482249      -1.03438628
Pb      16.54489973      12.25635258       9.22018874      -0.00000531      -0.00002903       0.00001079       0.49072937      -2.79897846       1.21543224
Pb       7.05102816      10.16645458       6.68802385      -0.00001076      -0.00000686       0.00000728      -0.47326200       1.41618610      -1.44842960
Pb       8.93039265       6.50029877       9.12436001      -0.00000510      -0.00001230       0.00002834       1.26454317      -0.27795544      -5.68981266
N        5.43744547       2.93290991       9.07697430       0.00001773       0.00000471      -0.00001789       0.59691078       0.00454270      -0.03157579
N       10.54388849      13.73386183       6.73535356      -0.00002602      -0.00002071      -0.00005472       0.04316740      -0.78608456      -0.42537547
N        1.05354751       8.43029782       9.05718640       0.00001296      -0.00002166      -0.00003909       0.47683418      -0.04221631       0.23641025
N       14.92775150       8.23651372       6.75537433       0.00001431      -0.00001519      -0.00004822      -0.39076617       0.39815667       0.00440793
I       17.17305279       6.58500874      14.07059452       0.00000588      -0.00000386      -0.00000581       1.51645034      -0.76261376       0.25509440
I       17.80118706      10.43489475      11.65937989      -0.00002588       0.00001036       0.00002627       1.87094706      -0.24528404       2.47110682
I        8.21292891      11.99180198      14.00648872       0.00003982      -0.00003761       0.00003184      -1.35102613      -0.94614215      -0.83573715
I        7.67828392       4.64273530      11.54012527       0.00002029       0.00001022       0.00000667      -0.39234822       0.35995544       0.76077017
I       15.60608504       2.99163642      11.60782519      -0.00000245       0.00001298       0.00001192       0.14585828      -1.05547485      -0.79432593
I        0.28518905      13.64283855      13.93895108      -0.00003228      -0.00000163      -0.00002635       1.02988533       0.66076474       1.57074432
I        9.92572254       8.45006071      11.57411499       0.00000467       0.00000342      -0.00000145       0.00180152      -1.73647531      -0.57390779
I        5.96559293       8.18445849      13.97252249       0.00001978      -0.00002070       0.00000637       0.50432155      -0.96539877       0.62788540
I        2.04355668       6.09431991      11.49186642      -0.00001021      -0.00002431      -0.00004350       0.24567142       0.57104575      -0.37092303
I       13.84773291      10.54010961      14.05489545       0.00001721       0.00000171      -0.00002992      -0.92716589      -0.34285704       1.82765319
I        4.29417987      11.75171761      11.53611884      -0.00001418       0.00002255       0.00001156      -0.41554747      -0.36218099       0.36395059
I       11.59713522       4.88276923      14.01051498       0.00000697       0.00001088       0.00002830       0.33391038       0.54090609       1.10118205
H        4.69923219       4.70451516      13.05102828      -0.00000704       0.00001146      -0.00005761      -0.13406328       0.09056376      -0.07311629
H       11.19191610      11.92969507      12.49549801       0.00001171      -0.00002195       0.00004135      -0.08026400      -0.08127947      -0.04190421
H        2.92210926       9.31034412      13.94704233       0.00002326      -0.00003259      -0.00003751       0.03494494       0.02197897       0.04795218
H       14.22334044       6.41309546      12.50311384       0.00001988      -0.00001708      -0.00001008      -0.13039629       0.11511132       0.00645391
H        3.45478896       3.75848568      13.93182165      -0.00005380      -0.00003144      -0.00003572       0.06263284       0.08653888      -0.21391847
H       11.20648248      11.93621409      10.70780966      -0.00003642      -0.00001880      -0.00000199      -0.05551457       0.07201351      -0.04401420
H        1.66782262      10.22150158      13.04356047      -0.00001635      -0.00002332       0.00000189       0.01030163      -0.12962625       0.04942154
H       12.96902542       7.32422760      11.59964409       0.00005147      -0.00000983       0.00002082      -0.11284583       0.21335501       0.12631833
H        4.68508729       4.69840827      14.83871232       0.00000529       0.00001314       0.00008019      -0.19240235      -0.16643128      -0.02710788
H       12.43652938      12.87597169      11.61521031      -0.00000522       0.00001205      -0.00002105      -0.18099177       0.19588511      -0.18064045
H        1.64934217      10.21505856      14.83100049      -0.00003479       0.00000165       0.00002974       0.01856831      -0.02856783       0.10728774
H       14.24174140       6.41944433      10.71567033       0.00000201      -0.00001210      -0.00002548       0.00932796      -0.03370648       0.07049153
H        5.21575943       2.29978792      14.77082511       0.00000329      -0.00000165       0.00003506       0.02399123      -0.02622118      -0.05655923
H       10.67552725      14.33465417      10.77598665      -0.00000981      -0.00001460      -0.00004834       0.10607430      -0.08213057       0.03582998
H        1.18653808       7.80227679      14.75387306      -0.00002179      -0.00000175       0.00000746       0.10544169      -0.08032579      -0.03342717
H       14.68778921       8.82629320      12.45285619      -0.00002602       0.00001686       0.00001792       0.05640380      -0.17749472       0.10655191
H        6.38948591       3.17858868      13.95308844      -0.00000646       0.00001908      -0.00002946       0.03878778       0.06011330       0.09154717
H       10.66203601      14.32877351      12.43601201       0.00001548       0.00000777      -0.00000134       0.14069867       0.03299063       0.16008488
H        1.20346992       7.80824317      13.09371836      -0.00001881       0.00000027       0.00003822      -0.18438860      -0.10295263      -0.18117350
H       14.70454184       8.83226318      10.79269835       0.00001547       0.00000963      -0.00000076       0.01916949      -0.12666914       0.06758709
H        5.22921865       2.30557583      13.11079842      -0.00001590      -0.00004793      -0.00003410       0.14106153       0.02672403      -0.05756618
H        9.50181675      13.45575617      11.59365540      -0.00002449       0.00001154      -0.00002094      -0.03014664       0.17450177      -0.27480906
H        0.00486107       8.64903878      13.91450350      -0.00000754      -0.00002696      -0.00000957      -0.08482386      -0.15933232       0.12720010
H       15.88629030       7.98547719      11.63193567      -0.00000805       0.00001825       0.00000310       0.09322726       0.02318934      -0.11478992
C        4.49396418       4.10289649      13.94125519       0.00001015       0.00008976       0.00002866      -0.42539428       0.50175371       0.36968125
C       11.39736786      12.53152191      11.60545349       0.00002842       0.00001273       0.00003285      -0.24699308      -0.19052534       0.33426717
C        1.87358776       9.62532961      13.93736155       0.00002562       0.00003387      -0.00000394       0.06836168       0.04989360      -0.32895791
C       14.01754319       7.00922079      11.60928985      -0.00001939       0.00004317       0.00001928       0.27940009       1.30335966       0.00807221
Pb      37.55743992       5.16509260      11.82607274       0.00003763       0.00002015       0.00000640      -1.00315489       0.65481402      -0.36171941
Pb      16.49988795      12.24015974      14.08737653      -0.00000907      -0.00001241      -0.00002607      -2.32696669      -2.33680371       1.04601236
Pb       7.00593058      10.15033308      11.55514321       0.00000548       0.00000898      -0.00001173      -0.18807048       1.25201908      -1.06408356
Pb       8.88538957       6.48417777      13.99145838      -0.00003799      -0.00003305       0.00000682       1.30767031       2.13248948       2.19330155
N        5.39250298       2.91660370      13.94433602       0.00000609      -0.00000669       0.00001344       0.63641669      -0.11418138      -0.16838069
N       10.49878679      13.71778526      11.60243876      -0.00000804       0.00000804      -0.00002236      -0.51863408       0.13608220      -0.08354529
N        1.00857742       8.41427082      13.92407983       0.00003834       0.00000709       0.00002636       0.16061372       0.10422615       0.22616331
N       14.88257655       8.22026543      11.62247373       0.00004160      -0.00000724      -0.00001273       0.21776164       0.61244164      -0.13948597
I       17.12804801       6.56883542      18.93783237      -0.00001812      -0.00001809       0.00001129      -0.84599377      -2.09043756       0.13753839
I       17.75625788      10.41875885      16.52654814      -0.00003636       0.00000125       0.00001680      -1.23708907      -2.14625212      -0.01125706
I        8.16791071      11.97568118      18.87365913       0.00000070      -0.00003849      -0.00001568      -0.89552429      -1.44899414       0.43340867
I        7.63336250       4.62653112      16.40725146      -0.00001296       0.00000107       0.00001663      -1.41299212       1.16146654       0.74161534
I       15.56096527       2.97544626      16.47492775       0.00005330       0.00005615       0.00000389       3.06633743       0.60294905       0.64539087
I        0.24014430      13.62669102      18.80598086      -0.00001087      -0.00000126      -0.00000167      -1.05016939      -0.96187860       2.60412738
I        9.88074535       8.43387457      16.44127541      -0.00000879      -0.00000492      -0.00001991      -0.07963416      -0.63221413       1.20684745
I        5.92058988       8.16825387      18.83963587       0.00001036       0.00001261      -0.00001387       1.18744329      -1.14739016      -1.97192378
I        1.99838703       6.07831709      16.35886664      -0.00003938      -0.00004059       0.00002751       0.09689567       1.44533494       1.29832269
I       13.80270377      10.52396065      18.92201800       0.00001904       0.00000902       0.00001598      -0.49238400       0.79108570       0.53487081
I        4.24910799      11.73535205      16.40336350      -0.00002363       0.00004833      -0.00002166       1.75754235       0.31437906       1.15993462
I       11.55215042       4.86663777      18.87762759       0.00003090       0.00002398       0.00000630      -0.22927764       1.35926560      -0.26769393
H        3.40963594       3.74236741      18.79885216       0.00001186       0.00002143       0.00002017       0.23482805      -0.09251381      -0.09301038
H       11.14719131      11.91362221      17.36285122      -0.00002846      -0.00000357       0.00001030      -0.00881694      -0.01859277       0.03302490
H        1.62272398      10.20515492      17.91080668       0.00001533      -0.00001269      -0.00000619      -0.09745519      -0.05426513       0.14434462
H       14.19696424       6.40334632      15.58282817      -0.00001047       0.00001570      -0.00000731       0.29823821       0.03928732      -0.07862094
H        4.63999181       4.68247562      19.70548679       0.00000533       0.00001755       0.00000548      -0.04215053       0.02143180      -0.11745375
H       11.16095735      11.91966789      15.57515661       0.00001483       0.00003963       0.00000325       0.11256754      -0.04446598       0.04500733
H        1.60443338      10.19876641      19.69824781       0.00002467       0.00004481       0.00004637       0.26306250       0.11850283       0.12049790
H       14.17881636       6.39690865      17.37027164       0.00002025      -0.00006272       0.00004435       0.09874295      -0.14078181      -0.03139901
H        4.65390963       4.68835270      17.91778535       0.00002524       0.00003266       0.00002519      -0.01393782       0.15768829      -0.03142152
H       12.39150536      12.85954344      16.48177236       0.00001681       0.00002015       0.00000527      -0.13972117       0.00266285       0.02760673
H        2.87707246       9.29396474      18.81418406       0.00001766       0.00002544      -0.00004779      -0.10479340       0.12185489       0.01528793
H       12.92426449       7.30793225      16.46703388      -0.00006972       0.00002312      -0.00003984       0.36232914       0.03610387      -0.08379500
H        6.34436367       3.16264858      18.81969526       0.00004279      -0.00001330       0.00001816      -0.16319697      -0.15269652       0.03943695
H       10.61732974      14.31262097      17.30309153      -0.00000249      -0.00002188      -0.00002757       0.03577886       0.24200796       0.00653422
H        1.14157710       7.78596461      19.62120509      -0.00002037       0.00001988      -0.00002042      -0.02928162       0.11118349      -0.07999768
H       14.64286229       8.81022341      17.32001733       0.00002379      -0.00002535       0.00000322       0.00539419       0.05862256      -0.13798368
H        5.18396436       2.28939640      17.97785117       0.00000842      -0.00000621       0.00002177       0.10776368       0.07084395      -0.21937845
H        9.45684211      13.43961116      16.46111394       0.00000969       0.00003072       0.00002456       0.11016928      -0.11737285      -0.02302253
H        1.15822427       7.79197458      17.96104487       0.00003330      -0.00003022      -0.00005435      -0.21601481       0.04778682      -0.05275596
H       14.65956437       8.81615834      15.65985955       0.00001964       0.00006291      -0.00003640      -0.04186708      -0.00312802      -0.09121492
H        5.17087015       2.28392952      19.63788154      -0.00001734      -0.00002195      -0.00000711       0.16948045       0.00312202      -0.30666014
H       10.63043825      14.31830683      15.64306094      -0.00001574       0.00002380      -0.00001997      -0.02695553       0.04942086       0.13311522
H       -0.04020934       8.63279461      18.78206149       0.00000185      -0.00002149       0.00002508      -0.19216844      -0.08904819      -0.02512818
H       15.84144981       7.96955153      16.49906933      -0.00002809      -0.00000668       0.00001498      -0.16072355       0.17452202      -0.16471759
C        4.44879356       4.08684438      18.80812350      -0.00004400      -0.00006039      -0.00000776       0.03091908       0.19382292       0.59089182
C       11.35230612      12.51519618      16.47255758       0.00000231      -0.00002035       0.00001196       0.00444857      -0.00183867      -0.41493811
C        1.82856564       9.60900358      18.80460329      -0.00003341      -0.00001693       0.00005032       0.07426738      -0.06320545      -0.33053917
C       13.97281830       6.99305248      16.47650842      -0.00002058      -0.00003455       0.00003389       0.69642859      -0.20104692       0.10421452
Pb      37.51236000       5.14899142      16.69317661       0.00003114       0.00002198      -0.00001602      -0.57653646      -0.17482249      -1.03438628
Pb      16.45485134      12.22403899      18.95445539      -0.00000531      -0.00002901       0.00001077       0.49072937      -2.79897846       1.21543224
Pb       6.96097977      10.13414099      16.42229050      -0.00001077      -0.00000686       0.00000728      -0.47326200       1.41618610      -1.44842960
Pb       8.84034426       6.46798518      18.85862666      -0.00000509      -0.00001229       0.00002833       1.26454317      -0.27795544      -5.68981266