768
Lattice="25.625769195560288 0.1442251890105203 -0.06288156074118129 -0.08544278206367628 25.555723663810763 -0.05823012908242495 0.07213310111533067 -0.1299461261962401 25.66616038795785" Properties=species:S:1:pos:R:3:forces:R:3:momenta:R:3 energy=-3346.170748868499 stress="0.0057625442512777 4.850653929061924e-05 1.469040380659454e-05 4.850653929061924e-05 0.006227606300298297 -0.0005886027349272322 1.469040380659454e-05 -0.0005886027349272322 0.006303878359751038" free_energy=-3346.170748868499 pbc="T T T"
I        6.83381661       0.77548724       2.59952943       0.00000369      -0.00001895       0.00000365      -0.15216684       0.95078017       0.60406752
I        5.97778521      12.29621553       8.98717462       0.00000512      -0.00001416      -0.00000157       0.92053548      -0.08068946      -1.41206487
I        6.00858981       9.78760517       5.04136917       0.00003007       0.00002073       0.00001976       0.09061743      -0.99841589      -2.61307021
I        6.75754678       3.38792222       6.21645997      -0.00002251       0.00003447      -0.00000421       1.49014244      -0.70568892       1.28489940
I        0.39273513      12.26877700       9.00018810      -0.00001805       0.00002401      -0.00000127      -0.45819890       1.08515706       1.30159116
I       12.39289246       0.80181526       2.58509109      -0.00001472       0.00002571      -0.00000129       1.05770396      -0.82019119       0.71744858
I       12.47176999       3.42117323       6.19710760      -0.00005793       0.00000572       0.00002550       0.72692072       0.22220582       1.35005681
I        0.36225255       9.75476705       5.05852655       0.00004064      -0.00001755      -0.00003318      -1.53995034       0.36346801       0.40765332
I        9.59485176      13.12492614      11.79415202      -0.00001159       0.00002835      -0.00001674       0.84775807      -0.35975843       0.41542593
I        3.19648385       6.04023616       6.15178716       0.00004514       0.00000879       0.00000109       0.74240336      -0.34455189       0.45870028
I        3.21485351       0.57939478       5.19563353       0.00001113      -0.00001284      -0.00002736      -0.92716913       0.07252758       0.52114149
I        9.58423911      12.67131214       5.86721963       0.00001927       0.00000313       0.00001989      -0.34427992      -1.70112706       1.85750550
H        4.09556109       2.33297806       1.84996313      -0.00004749      -0.00001720       0.00002458      -0.19197543      -0.26462865      -0.04053576
H        8.70286598       4.26554275       2.04859044       0.00000003      -0.00000702       0.00001376      -0.06790484      -0.01938563      -0.06201139
H        8.69041488       9.35007940       2.50475144      -0.00003409       0.00000392      -0.00004075       0.10229522       0.11454902      -0.11745177
H        2.31710430       2.66674149       7.87447840       0.00000243       0.00004197      -0.00003395       0.19661705       0.18768403      -0.12795437
H        2.29825147       8.74459763       8.20552682      -0.00002574       0.00002815      -0.00000813       0.03159312      -0.06553591       0.05512740
H       10.49968240       4.26951173       2.04614913       0.00001552      -0.00002026      -0.00005835       0.11798897      -0.01032484       0.06689778
H        8.73036467       2.85571127       8.81131893      -0.00000488      -0.00001656       0.00002748       0.00350653       0.04727806      -0.14469622
H        4.11250525       2.67453279       7.86858591      -0.00000756      -0.00001389      -0.00000640       0.06090436       0.00048425       0.04517733
H        3.19147931       3.69947328       1.11476675      -0.00000558      -0.00002712      -0.00003635      -0.02944177      -0.13059476      -0.16055343
H        9.60369647       2.81444112       1.48465476       0.00000562      -0.00005184       0.00006556       0.24426672       0.07452209       0.10381602
H        9.58794711      10.03985046       3.90062481       0.00000250      -0.00003991      -0.00001658       0.02100287      -0.02384327      -0.12045008
H        3.22253600       1.91822069       9.23333603      -0.00001619       0.00001441      -0.00001243      -0.06146678       0.00639554      -0.12278753
H        3.20501813       2.97609690       4.01310925      -0.00001238      -0.00007901      -0.00002836       0.06414263      -0.05164717      -0.06495070
H        9.61161466       8.39301478      10.24075834      -0.00003270      -0.00000262      -0.00000205      -0.06025213       0.01279748      -0.03156859
H       10.41520201      11.80316336       2.41828883       0.00000069       0.00002776       0.00000566      -0.08391849       0.02692514      -0.06032126
H        2.33916775      10.44839987       3.49220699      -0.00004649       0.00000683       0.00003396       0.26561266       0.04654214       0.06165435
H        2.36252477       4.27034334       3.31566991      -0.00001669      -0.00000931      -0.00002617      -0.08982365      -0.08700422       0.08662027
H        8.76721860       9.67217035      10.88245483      -0.00005011       0.00002318      -0.00002706      -0.01069225       0.01694700       0.00468068
H        8.74009578      11.79503157       2.42000341       0.00006088       0.00001520       0.00000739      -0.05119498       0.13107297       0.17288917
H        3.16941288      11.19940809       2.22219948       0.00001588      -0.00003950       0.00002083      -0.13998350      -0.02732343      -0.12870496
H        4.03466710       4.27530081       3.30919374       0.00002360       0.00001754       0.00002042      -0.08433127      -0.14147942      -0.03846097
H        9.60514919       3.90063413       4.26681752       0.00000463       0.00000738      -0.00002089      -0.01071900      -0.00019359      -0.17209111
H        9.57966770      11.16685503       1.12983581      -0.00000235      -0.00002175      -0.00002259      -0.05198678       0.23851683       0.05948325
H        4.01447396      10.45584904       3.48678362      -0.00001645       0.00003877      -0.00006077       0.00737940       0.05286160      -0.08092263
C        3.19405707       9.37037649       8.26548735       0.00003565      -0.00002362       0.00001478      -0.56607204       0.30362666       0.16447682
C        9.60280335       3.65716183       2.18356157       0.00000271       0.00000384      -0.00001671      -0.90045086       0.14125597      -0.01818436
C        9.62676414       3.39806333       9.12709781      -0.00000760       0.00000642       0.00002599       0.72804279      -0.30473401       0.45015948
C        3.21661658       2.72581567       8.49525205       0.00001296       0.00002367      -0.00001177      -0.26728062      -0.43248085      -0.09022769
Pb       6.37019277       6.54782243       5.62487404      -0.00001749      -0.00001288       0.00001353      -0.79692446      -4.10650798      -2.00334036
Pb       6.37481926      12.93817747       5.72631235      -0.00003258      -0.00000010       0.00000525      -0.17299018      -4.13209668       2.41530377
Pb       0.01682008      12.91714470      12.08819668       0.00001335      -0.00001453       0.00000399      -1.40112977      -3.29270717      -0.74687116
Pb      -0.02398245      12.90222920       5.74396710       0.00002380      -0.00005871      -0.00000670       0.09634648       2.81102427      -0.05526922
N        3.20007083       3.65937603       3.22941820      -0.00001250       0.00003438       0.00001409       0.01098354      -0.42126519      -0.95774026
N        9.60554972       9.42454829      10.31462243       0.00007292       0.00004133       0.00003570       0.52302033      -0.37459234       0.14795435
N        9.58014642      11.23520985       2.16115358       0.00000830      -0.00000953       0.00003747       0.20912619      -0.05911402      -0.70690658
N        3.17505429      10.39035203       2.87313332       0.00003301      -0.00003088      -0.00004115      -0.16317609       0.47241615      -0.42238393
I        6.81853521       7.05800367       8.91241345       0.00000394      -0.00001075      -0.00001172      -0.69984086       1.19800499      -0.47463385
I        5.95120740       5.90794716       2.50402597      -0.00001542      -0.00002238       0.00001692      -3.42904834       1.67913332      -0.54766685
I        5.98813626       3.39762873      11.45375125       0.00000388      -0.00002548      -0.00000049      -0.38364372      -0.27952144       0.22966111
I        6.86315632       9.72175000      25.47861950       0.00000517       0.00003889      -0.00000987       1.79462234      -0.05550177       0.59622638
I        0.42535363       5.88205337       2.51675600      -0.00001580      -0.00002719      -0.00002961      -1.01056694      -1.10735239      -0.66327266
I       12.40100485       7.08478731       8.89792632      -0.00000197      -0.00000342       0.00003416      -1.99619491       0.78385491      -1.28086097
I       12.43191844       9.75343837      25.46039131      -0.00003524       0.00000618      -0.00000496       0.12169942      -0.97067485       0.56825283
I        0.46090431       3.36436373      11.47118281       0.00001100      -0.00000962       0.00002864      -0.33417262      -0.63029677       1.50626227
I        9.59810162       6.48978758       5.16007262      -0.00000807      -0.00001709       0.00003058      -3.96391240      -1.94809140      -0.35327420
I        3.23034970      12.27423021      25.46941704      -0.00001266      -0.00000009      -0.00004804      -0.43703422       1.31960605       0.94166076
I        3.21036601       7.01282365      11.54923417       0.00002418       0.00003434       0.00000564       0.35476245       0.35217012      -0.00351377
I        9.65919302       6.12400990      24.97406371      -0.00002152      -0.00002200       0.00001758      -2.50374365       0.80139152      -1.22113935
H        4.09279949       8.74946120       8.19922623      -0.00001398      -0.00000511       0.00001814       0.08576383       0.01400391      -0.06439478
H        8.69950552       9.77613576       8.43896361       0.00002379      -0.00001670       0.00000046       0.08034414       0.07071008       0.01689793
H        9.62721918       3.53740987      10.21197376       0.00001568       0.00000365       0.00000252       0.05538311       0.05208661       0.11172269
H        3.18353812       8.27563634       2.82784808       0.00000189      -0.00008087       0.00002162       0.14472914      -0.21330692       0.06460294
H        2.30088404       2.32802895       1.85701132       0.00002840       0.00000823       0.00000104       0.31129646      -0.19276056       0.12742474
H        9.59268991      11.17311573       9.12912070      -0.00004198       0.00003692      -0.00002562       0.13521216       0.00476858       0.02563152
H       10.48912192       9.35897506       2.50274582       0.00002903      -0.00000210       0.00003588       0.08134158      -0.02550850       0.03554040
H        2.27927362       9.06425545       1.49213279      -0.00000550       0.00004966       0.00001680       0.04854056      -0.00119171       0.08421532
H        3.18917089      10.11602245       7.46462044      -0.00002857      -0.00004592      -0.00003625       0.26582302      -0.00792860       0.04757841
H       10.49842623       9.78639825       8.43462917      -0.00003024       0.00000114       0.00001699      -0.07922887       0.18248793      -0.06216002
H       10.52809985       2.86507432       8.80940474      -0.00000296       0.00001100      -0.00000382      -0.11503924       0.10282218      -0.17038556
H        4.07334142       9.07164173       1.48680568      -0.00003592       0.00007249       0.00000905       0.02609588      -0.36408704       0.00290858
H        2.35789353      10.68663908       9.66772207      -0.00003957      -0.00000323      -0.00003133      -0.08343573       0.01450573       0.33338679
H       10.44340746       2.53720463       3.74919023      -0.00002549       0.00005343      -0.00001564      -0.02628942      -0.17731553      -0.10349197
H        8.77868865       5.29983123       8.73945675      -0.00001322      -0.00000033       0.00000597      -0.02228181       0.05352363      -0.15609814
H        3.20771177       4.82299407       8.53927102      -0.00001456       0.00000837       0.00004093       0.10777707      -0.16015040       0.07989331
H        4.03262490      10.69182183       9.66184442       0.00000812       0.00000241       0.00002055       0.04315873      -0.03796633       0.00632217
H        8.77128439       2.53357353       3.75173506       0.00000533      -0.00002534       0.00004685       0.16037171      -0.30842764       0.05266389
H        9.61819306       4.67762018       7.44531416       0.00000642       0.00002023       0.00003147      -0.07322574      -0.16596677       0.01681319
H        4.05146374       4.11535476       9.82609952       0.00001660       0.00001351       0.00003623       0.06460715      -0.09588493      -0.03597332
H        3.20158043       9.39228530      10.36294480       0.00001507       0.00000532      -0.00005953      -0.00830990      -0.01113260       0.06294563
H       10.44359239       9.68232585      10.87831280      -0.00002423      -0.00004978      -0.00000488       0.12620866      -0.02693619       0.04174214
H       10.45470343       5.30807063       8.73710982      -0.00000744      -0.00000045       0.00002907      -0.11771557      -0.09468012      -0.01326840
H        2.37880765       4.10790081       9.83161869      -0.00000144      -0.00004295      -0.00001183      -0.20737486      -0.01094950      -0.02846688
C        3.19675012       2.95357602       1.91516382       0.00001338       0.00001587       0.00007336      -0.35967083       0.19635414      -0.55371848
C        9.59850832      10.08970738       8.97832032       0.00008666       0.00002691       0.00001066       0.08109080      -0.02147722      -0.01230741
C        9.58744569       9.89375573       2.81644933       0.00005007      -0.00000951       0.00001717      -0.52948231       0.85217067      -0.08483692
C        3.17801458       9.10559860       2.11506288      -0.00000522      -0.00002957       0.00001103      -0.01892119      -0.45727659       0.43323900
Pb       6.36702209      12.95111793      12.07120194      -0.00004074       0.00002145      -0.00005449      -0.71074510       2.01434896      -1.84864652
Pb       6.39620403       6.50201503      12.09644813      -0.00004622      -0.00001655      -0.00001679       2.85124423      -1.66207889       0.06218229
Pb       0.02011938       6.51383153       5.64279589       0.00003324       0.00008811      -0.00002336      -0.68299832       0.44064510       0.41290652
Pb       0.03214241       6.46642453      12.11521274       0.00003539       0.00003496       0.00001692      -0.98342795       0.35573541      -1.34830337
N        3.19685613      10.07600822       9.57990588       0.00003378      -0.00003285       0.00002308       0.10547026      -0.66773913      -0.52651457
N        9.60581541       3.12218887       3.57845792       0.00001758       0.00005457       0.00000186      -0.63080933      -0.57366514       0.17760068
N        9.61911905       4.74234023       8.47745293       0.00000592      -0.00004580      -0.00007867       0.59799036      -0.34494500      -0.55278526
N        3.21340853       4.03326459       9.21432158       0.00003762       0.00001155      -0.00003185      -0.20425796       0.28747766       0.27233620
I        6.86988316       0.71051418      15.43260962       0.00000369      -0.00001896       0.00000367      -0.15216684       0.95078017       0.60406752
I        6.01385176      12.23124247      21.82025481       0.00000512      -0.00001416      -0.00000157       0.92053548      -0.08068946      -1.41206487
I        6.04465636       9.72263211      17.87444936       0.00003007       0.00002073       0.00001976       0.09061743      -0.99841589      -2.61307021
I        6.79361333       3.32294916      19.04954016      -0.00002251       0.00003447      -0.00000422       1.49014244      -0.70568892       1.28489940
I        0.42880168      12.20380394      21.83326829      -0.00001805       0.00002401      -0.00000127      -0.45819890       1.08515706       1.30159116
I       12.42895901       0.73684220      15.41817128      -0.00001472       0.00002570      -0.00000128       1.05770396      -0.82019119       0.71744858
I       12.50783654       3.35620017      19.03018779      -0.00005793       0.00000571       0.00002550       0.72692072       0.22220582       1.35005681
I        0.39831910       9.68979399      17.89160674       0.00004064      -0.00001756      -0.00003318      -1.53995034       0.36346801       0.40765332
I        9.63091831      13.05995308      24.62723221      -0.00001160       0.00002835      -0.00001674       0.84775807      -0.35975843       0.41542593
I        3.23255040       5.97526310      18.98486735       0.00004514       0.00000879       0.00000109       0.74240336      -0.34455189       0.45870028
I        3.25092006       0.51442172      18.02871372       0.00001113      -0.00001284      -0.00002736      -0.92716913       0.07252758       0.52114149
I        9.62030566      12.60633908      18.70029982       0.00001927       0.00000313       0.00001989      -0.34427992      -1.70112706       1.85750550
H        4.13162764       2.26800500      14.68304332      -0.00004749      -0.00001720       0.00002459      -0.19197543      -0.26462865      -0.04053576
H        8.73893253       4.20056969      14.88167063       0.00000003      -0.00000702       0.00001376      -0.06790484      -0.01938563      -0.06201139
H        8.72648143       9.28510634      15.33783163      -0.00003409       0.00000392      -0.00004075       0.10229522       0.11454902      -0.11745177
H        2.35317085       2.60176843      20.70755859       0.00000243       0.00004197      -0.00003395       0.19661705       0.18768403      -0.12795437
H        2.33431802       8.67962457      21.03860701      -0.00002574       0.00002815      -0.00000813       0.03159312      -0.06553591       0.05512740
H       10.53574895       4.20453867      14.87922932       0.00001552      -0.00002026      -0.00005835       0.11798897      -0.01032484       0.06689778
H        8.76643122       2.79073821      21.64439912      -0.00000488      -0.00001656       0.00002748       0.00350653       0.04727806      -0.14469622
H        4.14857180       2.60955973      20.70166610      -0.00000756      -0.00001389      -0.00000640       0.06090436       0.00048425       0.04517733
H        3.22754586       3.63450022      13.94784694      -0.00000558      -0.00002712      -0.00003635      -0.02944177      -0.13059476      -0.16055343
H        9.63976302       2.74946806      14.31773495       0.00000562      -0.00005184       0.00006556       0.24426672       0.07452209       0.10381602
H        9.62401366       9.97487740      16.73370500       0.00000250      -0.00003991      -0.00001658       0.02100287      -0.02384327      -0.12045008
H        3.25860255       1.85324763      22.06641622      -0.00001619       0.00001441      -0.00001243      -0.06146678       0.00639554      -0.12278753
H        3.24108468       2.91112384      16.84618944      -0.00001238      -0.00007902      -0.00002836       0.06414263      -0.05164717      -0.06495070
H        9.64768121       8.32804172      23.07383853      -0.00003270      -0.00000261      -0.00000205      -0.06025213       0.01279748      -0.03156859
H       10.45126856      11.73819030      15.25136902       0.00000069       0.00002776       0.00000566      -0.08391849       0.02692514      -0.06032126
H        2.37523430      10.38342681      16.32528718      -0.00004649       0.00000683       0.00003396       0.26561266       0.04654214       0.06165435
H        2.39859132       4.20537028      16.14875010      -0.00001669      -0.00000931      -0.00002616      -0.08982365      -0.08700422       0.08662027
H        8.80328515       9.60719729      23.71553502      -0.00005011       0.00002318      -0.00002706      -0.01069225       0.01694700       0.00468068
H        8.77616233      11.73005851      15.25308360       0.00006088       0.00001520       0.00000739      -0.05119498       0.13107297       0.17288917
H        3.20547943      11.13443503      15.05527967       0.00001588      -0.00003950       0.00002083      -0.13998350      -0.02732343      -0.12870496
H        4.07073365       4.21032775      16.14227393       0.00002360       0.00001754       0.00002042      -0.08433127      -0.14147942      -0.03846097
H        9.64121574       3.83566107      17.09989771       0.00000463       0.00000738      -0.00002089      -0.01071900      -0.00019359      -0.17209111
H        9.61573425      11.10188197      13.96291600      -0.00000235      -0.00002174      -0.00002260      -0.05198678       0.23851683       0.05948325
H        4.05054051      10.39087598      16.31986381      -0.00001645       0.00003877      -0.00006077       0.00737940       0.05286160      -0.08092263
C        3.23012362       9.30540343      21.09856754       0.00003565      -0.00002362       0.00001478      -0.56607204       0.30362666       0.16447682
C        9.63886990       3.59218877      15.01664176       0.00000271       0.00000384      -0.00001671      -0.90045086       0.14125597      -0.01818436
C        9.66283069       3.33309027      21.96017800      -0.00000760       0.00000642       0.00002599       0.72804279      -0.30473401       0.45015948
C        3.25268313       2.66084261      21.32833224       0.00001296       0.00002368      -0.00001177      -0.26728062      -0.43248085      -0.09022769
Pb       6.40625932       6.48284937      18.45795423      -0.00001749      -0.00001289       0.00001353      -0.79692446      -4.10650798      -2.00334036
Pb       6.41088581      12.87320441      18.55939254      -0.00003258      -0.00000010       0.00000524      -0.17299018      -4.13209668       2.41530377
Pb       0.05288663      12.85217164      24.92127687       0.00001335      -0.00001454       0.00000400      -1.40112977      -3.29270717      -0.74687116
Pb       0.01208410      12.83725614      18.57704729       0.00002380      -0.00005872      -0.00000669       0.09634648       2.81102427      -0.05526922
N        3.23613738       3.59440297      16.06249839      -0.00001250       0.00003438       0.00001409       0.01098354      -0.42126519      -0.95774026
N        9.64161627       9.35957523      23.14770262       0.00007292       0.00004132       0.00003571       0.52302033      -0.37459234       0.14795435
N        9.61621297      11.17023679      14.99423377       0.00000830      -0.00000953       0.00003747       0.20912619      -0.05911402      -0.70690658
N        3.21112084      10.32537897      15.70621351       0.00003301      -0.00003088      -0.00004115      -0.16317609       0.47241615      -0.42238393
I        6.85460176       6.99303061      21.74549364       0.00000395      -0.00001075      -0.00001172      -0.69984086       1.19800499      -0.47463385
I        5.98727395       5.84297410      15.33710616      -0.00001542      -0.00002238       0.00001692      -3.42904834       1.67913332      -0.54766685
I        6.02420281       3.33265567      24.28683144       0.00000388      -0.00002549      -0.00000049      -0.38364372      -0.27952144       0.22966111
I        6.82708977       9.78672307      12.64553930       0.00000517       0.00003886      -0.00000986       1.79462234      -0.05550177       0.59622638
I        0.46142018       5.81708031      15.34983619      -0.00001580      -0.00002719      -0.00002960      -1.01056694      -1.10735239      -0.66327266
I       12.43707140       7.01981425      21.73100651      -0.00000197      -0.00000342       0.00003416      -1.99619491       0.78385491      -1.28086097
I       12.39585189       9.81841144      12.62731111      -0.00003524       0.00000616      -0.00000495       0.12169942      -0.97067485       0.56825283
I        0.49697086       3.29939067      24.30426300       0.00001100      -0.00000962       0.00002865      -0.33417262      -0.63029677       1.50626227
I        9.63416817       6.42481452      17.99315281      -0.00000806      -0.00001709       0.00003058      -3.96391240      -1.94809140      -0.35327420
I        3.19428315      12.33920328      12.63633684      -0.00001267      -0.00000010      -0.00004803      -0.43703422       1.31960605       0.94166076
I        3.24643256       6.94785059      24.38231436       0.00002418       0.00003435       0.00000564       0.35476245       0.35217012      -0.00351377
I        9.62312647       6.18898297      12.14098351      -0.00002152      -0.00002200       0.00001759      -2.50374365       0.80139152      -1.22113935
H        4.12886604       8.68448814      21.03230642      -0.00001398      -0.00000511       0.00001814       0.08576383       0.01400391      -0.06439478
H        8.73557207       9.71116270      21.27204380       0.00002379      -0.00001670       0.00000046       0.08034414       0.07071008       0.01689793
H        9.66328573       3.47243681      23.04505395       0.00001568       0.00000366       0.00000252       0.05538311       0.05208661       0.11172269
H        3.21960467       8.21066328      15.66092827       0.00000189      -0.00008087       0.00002162       0.14472914      -0.21330692       0.06460294
H        2.33695059       2.26305589      14.69009151       0.00002840       0.00000823       0.00000104       0.31129646      -0.19276056       0.12742474
H        9.62875646      11.10814267      21.96220089      -0.00004198       0.00003692      -0.00002562       0.13521216       0.00476858       0.02563152
H       10.52518847       9.29400200      15.33582601       0.00002903      -0.00000210       0.00003588       0.08134158      -0.02550850       0.03554040
H        2.31534017       8.99928239      14.32521298      -0.00000550       0.00004966       0.00001680       0.04854056      -0.00119171       0.08421532
H        3.22523744      10.05104939      20.29770063      -0.00002857      -0.00004592      -0.00003625       0.26582302      -0.00792860       0.04757841
H       10.53449278       9.72142519      21.26770936      -0.00003024       0.00000114       0.00001699      -0.07922887       0.18248793      -0.06216002
H       10.56416640       2.80010126      21.64248493      -0.00000296       0.00001100      -0.00000382      -0.11503924       0.10282218      -0.17038556
H        4.10940797       9.00666867      14.31988587      -0.00003592       0.00007249       0.00000905       0.02609588      -0.36408704       0.00290858
H        2.39396008      10.62166602      22.50080226      -0.00003957      -0.00000323      -0.00003132      -0.08343573       0.01450573       0.33338679
H       10.47947401       2.47223157      16.58227042      -0.00002549       0.00005342      -0.00001564      -0.02628942      -0.17731553      -0.10349197
H        8.81475520       5.23485817      21.57253694      -0.00001322      -0.00000034       0.00000597      -0.02228181       0.05352363      -0.15609814
H        3.24377832       4.75802101      21.37235121      -0.00001456       0.00000837       0.00004093       0.10777707      -0.16015040       0.07989331
H        4.06869145      10.62684877      22.49492461       0.00000811       0.00000241       0.00002055       0.04315873      -0.03796633       0.00632217
H        8.80735094       2.46860047      16.58481525       0.00000533      -0.00002534       0.00004685       0.16037171      -0.30842764       0.05266389
H        9.65425961       4.61264712      20.27839435       0.00000642       0.00002023       0.00003147      -0.07322574      -0.16596677       0.01681319
H        4.08753029       4.05038170      22.65917971       0.00001661       0.00001351       0.00003623       0.06460715      -0.09588493      -0.03597332
H        3.23764698       9.32731224      23.19602499       0.00001507       0.00000532      -0.00005953      -0.00830990      -0.01113260       0.06294563
H       10.47965894       9.61735279      23.71139299      -0.00002423      -0.00004978      -0.00000488       0.12620866      -0.02693619       0.04174214
H       10.49076998       5.24309757      21.57019001      -0.00000744      -0.00000045       0.00002907      -0.11771557      -0.09468012      -0.01326840
H        2.41487420       4.04292775      22.66469888      -0.00000144      -0.00004295      -0.00001183      -0.20737486      -0.01094950      -0.02846688
C        3.23281667       2.88860296      14.74824401       0.00001338       0.00001587       0.00007336      -0.35967083       0.19635414      -0.55371848
C        9.63457487      10.02473432      21.81140051       0.00008666       0.00002691       0.00001066       0.08109080      -0.02147722      -0.01230741
C        9.62351224       9.82878267      15.64952952       0.00005007      -0.00000951       0.00001717      -0.52948231       0.85217067      -0.08483692
C        3.21408113       9.04062554      14.94814307      -0.00000522      -0.00002956       0.00001103      -0.01892119      -0.45727659       0.43323900
Pb       6.40308864      12.88614487      24.90428213      -0.00004074       0.00002144      -0.00005448      -0.71074510       2.01434896      -1.84864652
Pb       6.43227058       6.43704197      24.92952832      -0.00004622      -0.00001656      -0.00001678       2.85124423      -1.66207889       0.06218229
Pb       0.05618593       6.44885847      18.47587608       0.00003324       0.00008811      -0.00002336      -0.68299832       0.44064510       0.41290652
Pb       0.06820896       6.40145147      24.94829293       0.00003539       0.00003495       0.00001693      -0.98342795       0.35573541      -1.34830337