768
Lattice="38.322138455744906 0.8008643429155324 0.10459777366291671 -0.11738699342832003 22.245391945115234 -0.11392937582694286 -0.017487643525237902 0.036766201994958135 19.25876699794919" Properties=species:S:1:pos:R:3:forces:R:3 energy=-3354.0658417646223 stress="0.0031745214693543033 0.0003788202346364677 5.0072786186335025e-05 0.0003788202346364677 0.0027128829616461336 -0.00014674068273362874 5.0072786186335025e-05 -0.00014674068273362874 0.0028737393629049922" free_energy=-3354.0658417646223 pbc="T T T"
I       16.06221319       3.81090643       1.09753995      -0.00000600       0.00000003      -0.00001027
I       16.67751720       7.66273431      17.92495261       0.00000716      -0.00000115       0.00000470
I        7.10930675       9.17231197       1.04505233      -0.00000673      -0.00000125      -0.00000824
I        6.46936573       1.90086234      17.92516585      -0.00000270       0.00000550      -0.00000530
I       14.38902897       0.30894211      17.96918233      -0.00000278       0.00000032       0.00000823
I       37.51175960      11.56511423       1.10562188      -0.00000269      -0.00000369      -0.00000745
I        8.77247751       5.70095711      17.91774295       0.00000326       0.00000513       0.00000545
I        4.80618750       5.37220875       1.05247098       0.00000526      -0.00000052      -0.00000371
I        0.81472285       3.31356135      17.89954021       0.00000017       0.00000469       0.00000140
I       12.76395166       7.75963481       1.07062437      -0.00000184      -0.00000651       0.00000285
I        3.12188922       8.98823431      17.88102905       0.00000083      -0.00000898      -0.00000183
I       10.45676052       2.08490688       1.08917683      -0.00001214       0.00000494       0.00000210
H        3.49426278       1.92520787       0.17414229      -0.00000150      -0.00000187       0.00000280
H       11.29965502      10.12112281      17.90271656       0.00000501      -0.00000043       0.00000398
H        1.75852668       6.41536477       1.02823454      -0.00000443      -0.00000353       0.00000336
H       13.03390083       3.68654158      17.04433949       0.00000005       0.00000185      -0.00000198
H        2.27900022       0.95225412       1.06773328      -0.00000113      -0.00000209      -0.00000685
H       10.08430530       9.14804634      18.79605898       0.00000351      -0.00000340      -0.00001490
H        0.53549953       7.38248117       0.13825305       0.00000194      -0.00000125      -0.00000082
H       13.04322170       3.69072395      18.83200299      -0.00000129       0.00000706       0.00000393
H        3.48633697       1.93402979       1.96221259      -0.00000070      -0.00000884      -0.00000678
H       10.09257005       9.13926861      17.00798820       0.00000348       0.00000323       0.00000947
H        0.54471004       7.38662465       1.92591826       0.00000059       0.00000292      -0.00000545
H       11.82014728       4.65783146      17.94207461       0.00000315       0.00000125      -0.00000261
H        4.01941767      10.67469796       1.85400387      -0.00000030       0.00000115      -0.00000627
H        9.49319642      11.52838308      18.71705915       0.00000834      -0.00000856       0.00000213
H       -0.03331274       5.00041172       1.86944751      -0.00000429      -0.00000750       0.00000818
H       14.76675773       5.17083521      17.92425695      -0.00000028       0.00000191       0.00000664
H        4.07818618      -0.44790545       1.91095291      -0.00000781      -0.00000769      -0.00000262
H        9.43452215      22.65107033      18.66013109      -0.00000024      -0.00000191      -0.00000810
H       -0.04198247       4.99719279       0.21100846       0.00000082       0.00000473       0.00000870
H       13.62071640       6.07600097      18.75916659       0.00000402      -0.00000962      -0.00001455
H        5.22885116       0.45742812       1.08365815      -0.00000642       0.00000537       0.00000623
H        8.29110314      21.73843728      17.82921852       0.00000632       0.00000284       0.00000250
H       -1.18808128       5.90233838       1.04585445       0.00000578      -0.00000394       0.00000051
H       13.61194422       6.07275901      17.10072915      -0.00000035       0.00000834      -0.00000534
C        3.30810512       1.32630973       1.07037154      -0.00000132      -0.00000773       0.00000250
C       10.27058198       9.74698074      17.89987844      -0.00001169       0.00000466       0.00000570
C        0.72660945       6.78209896       1.03251943      -0.00000432       0.00000285      -0.00000502
C       12.85206133       4.29108894      17.93773580       0.00000152      -0.00000702      -0.00000622
Pb      36.48655006       2.41070517      18.00805206       0.00000701       0.00000207      -0.00000380
Pb      15.41425029       9.46336154       1.06674907       0.00000222      -0.00000742      -0.00000376
Pb       5.81703682       7.36249560      17.89933837      -0.00000339       0.00000168      -0.00000571
Pb       7.76164156       3.71066644       1.07088521      -0.00000291      -0.00000427       0.00000134
N        4.23964620       0.16683109       1.08004490      -0.00000352      -0.00000541      -0.00000552
N        9.33894618      10.90638190      17.89006120       0.00000328       0.00000104       0.00002452
N       -0.19759674       5.61621723       1.03982350      -0.00000914       0.00000271       0.00000912
N       13.77627587       5.45696366      17.93035155      -0.00000677       0.00000370       0.00001992
I       16.05782736       3.82008666       5.91222646      -0.00000471      -0.00000067      -0.00000234
I       16.69063811       7.63514872       3.48087205      -0.00000112       0.00000423      -0.00000007
I        7.10492544       9.18150741       5.85972946      -0.00000567       0.00000906      -0.00000312
I        6.48249554       1.87328572       3.48110417      -0.00000134       0.00000556       0.00000465
I       14.28476432      22.52675196       3.41116694      -0.00000732       0.00000083      -0.00000092
I       37.50738626      11.57430033       5.92030187       0.00000047       0.00000320      -0.00000296
I        8.78559561       5.67338990       3.47366045       0.00000761       0.00000924      -0.00000131
I        4.80184351       5.38138226       5.86715854      -0.00000184       0.00000314      -0.00000247
I        0.82784805       3.28598614       3.45548830      -0.00000290      -0.00000061      -0.00000628
I       12.75956737       7.76883005       5.88534070      -0.00000294      -0.00000642       0.00000271
I        3.13500658       8.96067657       3.43693441       0.00001400      -0.00000339       0.00000101
I       10.45244387       2.09410995       5.90386476      -0.00001365       0.00000193       0.00000272
H        2.27461576       0.96127100       5.88213745       0.00000358       0.00000435       0.00000317
H       10.09723552       9.12036739       4.35194946       0.00001371       0.00001035      -0.00000198
H        0.53123996       7.39161352       4.95291931      -0.00000501       0.00000111      -0.00000065
H       13.05618669       3.66317067       4.38787555       0.00000321       0.00000429      -0.00000753
H        3.48170958       1.94306915       6.77691460       0.00000241       0.00000369      -0.00000299
H       10.10572595       9.11172328       2.56388191      -0.00000115       0.00000134      -0.00000143
H        0.54030577       7.39584891       6.74058481      -0.00000746      -0.00000848      -0.00000050
H       11.83325529       4.63021593       3.49768897      -0.00000063       0.00000301       0.00000131
H        3.48999942       1.93435016       4.98884439      -0.00000302      -0.00000217       0.00000945
H       11.31278962      10.09339895       3.45883194       0.00000659       0.00000480      -0.00000633
H        1.75416361       6.42450554       5.84304790       0.00001071      -0.00000653      -0.00000427
H       13.04720124       3.65892350       2.60020989      -0.00001213       0.00000096      -0.00000263
H        4.02225239      10.67669434       5.01081808       0.00000218       0.00000260      -0.00000117
H        9.50638789      11.50079710       4.27302842      -0.00000457      -0.00000430      -0.00000587
H       -0.03775927       5.00963265       6.68417210       0.00000164      -0.00000795      -0.00000042
H       13.62514657       6.04517452       2.65663665      -0.00000282      -0.00000055       0.00001516
H        4.08103317      -0.44601844       5.06778688       0.00000232       0.00000202       0.00000580
H        9.45497126      22.61628587       2.55818712      -0.00000157      -0.00000075       0.00000529
H       -0.04633682       5.00636238       5.02573371       0.00000004       0.00000429      -0.00000869
H       14.77985667       5.14328962       3.48035959       0.00000453      -0.00000361       0.00000135
H        4.07371882      -0.43882209       6.72564255      -0.00000267       0.00000296       0.00000062
H        9.44780070      22.62349806       4.21604205      -0.00000408       0.00000505       0.00000246
H       -1.19245970       5.91156435       5.86048347       0.00000424      -0.00000131      -0.00000344
H       13.63367630       6.04844131       4.31507675      -0.00000817       0.00000912       0.00001290
C        3.30369746       1.33538987       5.88500234       0.00000298      -0.00000120      -0.00000603
C       10.28368220       9.71935363       3.45583877      -0.00000399      -0.00000570       0.00000916
C        0.72225747       6.79127097       5.84723206      -0.00001099       0.00001655      -0.00001089
C       12.86517879       4.26349824       3.49355034       0.00001624       0.00000372       0.00001789
Pb      36.49966964       2.38313101       3.56397907       0.00000953       0.00000129       0.00000085
Pb      15.40989167       9.47253635       5.88142528      -0.00000849       0.00000125       0.00000496
Pb       5.83014168       7.33492677       3.45526024      -0.00000131       0.00000326       0.00000214
Pb       7.75730034       3.71985760       5.88556400      -0.00000765      -0.00000946      -0.00000363
N        4.23530617       0.17596704       5.89479392      -0.00000150      -0.00000226      -0.00000305
N        9.35215411      10.87884083       3.44599367      -0.00000219      -0.00000602      -0.00000138
N       -0.20198272       5.62541652       5.85452151      -0.00001300       0.00000285       0.00001179
N       13.78936724       5.42939487       3.48629129       0.00001386      -0.00000684      -0.00002463
I       16.05346967       3.82929758      10.72692134      -0.00000483      -0.00001344       0.00000224
I       16.68627509       7.64435288       8.29556883       0.00000761      -0.00000312      -0.00000520
I        7.10057341       9.19067974      10.67442402      -0.00000409       0.00000067       0.00000120
I        6.47812667       1.88247402       8.29576531      -0.00001344       0.00000597       0.00000640
I       14.39779200       0.29057443       8.33980048      -0.00000482      -0.00000279      -0.00000376
I       37.50300803      11.58349493      10.73500793       0.00000241      -0.00000024      -0.00000379
I        8.78123273       5.68258495       8.28836223       0.00000172       0.00000472      -0.00000037
I        4.79745395       5.39059838      10.68184393       0.00000025      -0.00000259      -0.00000306
I        0.82347424       3.29518576       8.27016726      -0.00000248      -0.00000245      -0.00000089
I       12.75520959       7.77801953      10.69999840      -0.00000559      -0.00000170       0.00000301
I        3.13064002       8.96985727       8.25159320       0.00000691      -0.00000209      -0.00000459
I       10.44801820       2.10328769      10.71856406      -0.00000014       0.00000031       0.00000101
H        2.27024621       0.97057520      10.69680415       0.00000162      -0.00000374       0.00000173
H       10.10126802       9.12094010       7.37857460       0.00000303      -0.00000981      -0.00000878
H        0.52679414       7.40084872       9.76762005      -0.00000094       0.00000251      -0.00000168
H       13.05191415       3.67233850       9.20260411      -0.00000235       0.00000185      -0.00000153
H        3.47737951       1.95230676      11.59160090      -0.00000203       0.00000817       0.00000197
H       11.30839515      10.10278541       8.27325710       0.00000784      -0.00000546      -0.00000110
H        0.53596826       7.40502310      11.55528547      -0.00000055       0.00000708       0.00000396
H       11.82889542       4.63943503       8.31258960      -0.00000235       0.00000262      -0.00000307
H        3.48569530       1.94359281       9.80353207      -0.00000068      -0.00000616       0.00000393
H       10.09311448       9.12966485       9.16664463       0.00000474       0.00000500      -0.00000869
H        1.74978851       6.43372932      10.65764260      -0.00000832       0.00000575       0.00000211
H       13.04270225       3.66813179       7.41493940       0.00000419       0.00000805       0.00000000
H        4.01079087      10.69308133      11.48337566      -0.00000034      -0.00000020       0.00001527
H        9.50918150      11.50280200       7.42987524       0.00000528      -0.00000107       0.00000392
H       -1.19682656       5.92074389      10.67521995       0.00000298      -0.00000384      -0.00000005
H       14.77550705       5.15243502       8.29494260      -0.00000334       0.00000494       0.00000165
H        4.06927155      -0.42961320      11.54033677       0.00000388      -0.00000010       0.00000488
H        9.44330077      22.63268703       9.03072791       0.00000619      -0.00000008       0.00000019
H       -0.04207933       5.01880994      11.49883733      -0.00000176       0.00000448       0.00000381
H       13.62942121       6.05760920       9.12977611       0.00000100       0.00000368      -0.00000005
H        5.22009843       0.47577148      10.71333775      -0.00000184       0.00001161      -0.00000288
H        8.29985505      21.72008338       8.19982457       0.00000270      -0.00001083       0.00001059
H       -0.05072707       5.01557715       9.84039838      -0.00000047      -0.00000124       0.00000192
H       13.62074053       6.05435391       7.47133831      -0.00000134       0.00000521       0.00000199
C        3.29934761       1.34463905      10.69968480      -0.00000048      -0.00000003      -0.00000005
C       10.27932719       9.72862886       8.27047055      -0.00000403      -0.00000535       0.00002522
C        0.71787650       6.80047942      10.66190090       0.00001052      -0.00000855      -0.00000347
C       12.86080912       4.27269118       8.30831667       0.00000631      -0.00000239       0.00001062
Pb      36.49529280       2.39234390       8.37866931       0.00000327      -0.00000783       0.00000240
Pb      15.40550996       9.48174844      10.69611263      -0.00000258      -0.00000375       0.00000065
Pb       5.82578406       7.34411469       8.26992929      -0.00000811      -0.00000657       0.00000198
Pb       7.75289982       3.72904942      10.70025082      -0.00000224      -0.00000512       0.00000167
N        4.23089632       0.18516804      10.70948888      -0.00000111       0.00000048      -0.00001569
N        9.34767582      10.88801777       8.26074195       0.00001639       0.00000633      -0.00002764
N       -0.20634567       5.63461034      10.66920604      -0.00000494       0.00000704       0.00000544
N       13.78502525       5.43856527       8.30097424      -0.00000228       0.00000191      -0.00000956
I       16.04906343       3.83845963      15.54161029       0.00000704       0.00000100       0.00000259
I       16.68190211       7.65355124      13.11025447       0.00000204       0.00000261       0.00000861
I        7.09620459       9.19986678      15.48912357      -0.00000436       0.00000107      -0.00000204
I        6.47373248       1.89167397      13.11046723       0.00000586       0.00000405       0.00000755
I       14.27600930      22.54515012      13.04054776      -0.00000141       0.00000695       0.00000619
I       37.49865175      11.59268656      15.54966982      -0.00000435      -0.00000151       0.00000603
I        8.77686703       5.69175398      13.10305127       0.00000260       0.00000498      -0.00000161
I        4.79308931       5.39977475      15.49654908       0.00000029       0.00000405      -0.00000283
I        0.81909971       3.30439127      13.08487397      -0.00000229      -0.00000503       0.00000342
I       12.75079919       7.78722105      15.51472849       0.00000486       0.00000558      -0.00000520
I        3.12632689       8.97908312      13.06633593       0.00000024      -0.00000354      -0.00000107
I       10.44368118       2.11249911      15.53326752      -0.00000762       0.00000510       0.00000376
H        3.47299669       1.96150156      16.40627448       0.00000616      -0.00000202      -0.00000039
H       10.09700166       9.13009707      12.19329025       0.00000056       0.00000471       0.00000158
H        1.74539835       6.44292106      15.47239736      -0.00000241      -0.00000033      -0.00000217
H       11.82450887       4.64870741      13.12715827       0.00002063      -0.00000057      -0.00000071
H        3.48134316       1.95277860      14.61820603      -0.00000882       0.00000306       0.00000077
H       11.30404948      10.11185730      13.08816903       0.00000415       0.00000414       0.00000474
H        0.52244795       7.41000531      14.58227704       0.00000042       0.00000389       0.00000074
H       13.03838197       3.67737530      12.22962690       0.00000140      -0.00000947      -0.00001051
H        2.26588289       0.97975967      15.51146343       0.00000289      -0.00000099      -0.00000032
H       10.08854866       9.13882602      13.98135871       0.00001065      -0.00000572      -0.00000613
H        0.53154842       7.41426898      16.36994227      -0.00000275      -0.00000907       0.00000273
H       13.04744290       3.68161661      14.01729248       0.00000270      -0.00000899       0.00000155
H        4.00617378      10.70223055      16.29807970       0.00000052       0.00000099       0.00000337
H        9.49758038      11.51919640      13.90236895       0.00000648      -0.00000025       0.00000562
H       -1.20122137       5.92995793      15.48989591       0.00000328       0.00000154      -0.00000166
H       14.77112836       5.16167769      13.10974492      -0.00000154       0.00000282      -0.00000334
H        5.21573656       0.48497157      15.52804505      -0.00000383       0.00000369       0.00000006
H        8.29546421      21.72931696      13.01465591       0.00000659      -0.00000987      -0.00000145
H       -0.04650100       5.02804154      16.31357195       0.00000772      -0.00000598      -0.00000482
H       13.62498547       6.06687649      13.94446840      -0.00000001      -0.00000516       0.00000213
H        4.07226207      -0.42761877      14.69716930      -0.00000073      -0.00000306      -0.00000397
H        9.44626897      22.63467717      12.18759594       0.00000336      -0.00000180       0.00000441
H       -0.05510846       5.02475626      14.65513375       0.00000343       0.00000374      -0.00000384
H       13.61643373       6.06359226      12.28602845      -0.00000648      -0.00000292       0.00000321
C        3.29498248       1.35382856      15.51435829      -0.00000894      -0.00000823       0.00000432
C       10.27495514       9.73777524      13.08521530      -0.00000791      -0.00000769      -0.00000049
C        0.71348905       6.80967878      15.47659558      -0.00000034      -0.00000159      -0.00000755
C       12.85642001       4.28195320      13.12297708      -0.00001524       0.00000576       0.00000609
Pb      36.49092820       2.40153209      13.19335715       0.00000009      -0.00000380       0.00000184
Pb      15.40113132       9.49092300      15.51081255      -0.00000503       0.00000607       0.00000260
Pb       5.82141525       7.35329313      13.08464926      -0.00000353       0.00000291      -0.00000724
Pb       7.74854539       3.73824484      15.51494683      -0.00001040      -0.00000651      -0.00000270
N        4.22653634       0.19436175      15.52417890       0.00000214       0.00000089       0.00001117
N        9.34338638      10.89722948      13.07533605      -0.00000910      -0.00000651       0.00000132
N       -0.21074252       5.64381690      15.48391873       0.00000276      -0.00000272      -0.00000659
N       13.78064881       5.44781697      13.11568703       0.00000950      -0.00000811      -0.00000717
I       16.00350517      14.93358950       1.04059367       0.00000271       0.00000064       0.00000699
I       16.61881807      18.78541695      17.86795231       0.00000324       0.00000714       0.00000532
I        7.05057507      20.29502611       0.98805932       0.00000840      -0.00000502      -0.00000015
I        6.41064714      13.02356914      17.86818275      -0.00000413       0.00000406       0.00000832
I       14.33035202      11.43165144      17.91222445      -0.00000541      -0.00000170       0.00000304
I       37.45307409      22.68780272       1.04862922       0.00000360       0.00000573       0.00000594
I        8.71376122      16.82367341      17.86078179      -0.00000287      -0.00000206      -0.00000045
I        4.74748801      16.49489863       0.99549025      -0.00000544       0.00000598       0.00000252
I        0.75603946      14.43624572      17.84258279       0.00000247       0.00000660       0.00000804
I       12.70524030      18.88230647       1.01365702       0.00000407       0.00000637      -0.00000516
I        3.06316721      20.11095114      17.82403509      -0.00000040       0.00000023       0.00000523
I       10.39806758      13.20761924       1.03216632       0.00000540       0.00000425      -0.00000006
H        3.43561258      13.04784372       0.11719711       0.00000681      -0.00000805       0.00000973
H       11.24097621      21.24377204      17.84590622      -0.00000616       0.00000065      -0.00000683
H        0.47682794      18.50515466       0.08127577      -0.00000063      -0.00000283      -0.00000366
H       12.98469066      14.81337963      18.77501622      -0.00001408      -0.00000394      -0.00000476
H        2.22027117      12.07476954       1.01055080       0.00000376       0.00000008       0.00000636
H       10.02551251      20.27068185      18.73908100       0.00000953      -0.00000548       0.00000463
H        0.48599430      18.50931643       1.86894123      -0.00000238       0.00000575      -0.00000434
H       11.76145182      15.78053501      17.88536128      -0.00000145      -0.00000003      -0.00001096
H        3.42739936      13.05658231       1.90526707      -0.00000035       0.00000437      -0.00000290
H       10.03394754      20.26200219      16.95101249      -0.00000694      -0.00000211       0.00000166
H        1.69981526      17.53802521       0.97129659      -0.00000242       0.00000053       0.00000530
H       12.97505073      14.80930837      16.98735282       0.00000575      -0.00000113       0.00000534
H        4.08518442      -0.45519336       0.25309822       0.00001441       0.00000335       0.00000022
H        9.44192626      22.64388166      17.00227707       0.00000304       0.00000485      -0.00000428
H       -1.24680137      17.02504784       0.98882722      -0.00000282       0.00000150       0.00000519
H       13.55312066      17.19551076      17.04377702       0.00000403      -0.00000498      -0.00000883
H        5.17015141      11.58013111       1.02691940      -0.00000473       0.00000638       0.00000137
H        8.34976742      10.61569881      17.88621650       0.00001059       0.00001105       0.00000622
H       -0.09207871      16.12312323       1.81249172       0.00000183      -0.00000308      -0.00000736
H       14.70805643      16.29355693      17.86708797       0.00000171       0.00000155       0.00000700
H        4.02665605      10.66746956       0.19614977       0.00000614       0.00000551      -0.00000270
H        9.50052821      11.52116330      17.05920641       0.00000394       0.00000216      -0.00001228
H       -0.10068066      16.11986630       0.15405303      -0.00000004       0.00000489      -0.00000616
H       13.56212845      17.19867722      18.70221390      -0.00000211      -0.00000626      -0.00001110
C        3.24935162      12.44889207       1.01336942       0.00001138       0.00000300      -0.00000946
C       10.21189200      20.86966089      17.84295220       0.00000149      -0.00000223       0.00000193
C        0.66790454      17.90477830       0.97555315       0.00000234      -0.00000295      -0.00000245
C       12.79336695      15.41379825      17.88081993       0.00000273      -0.00000007       0.00000296
Pb      36.42785922      13.53339872      17.95109294       0.00000096       0.00000017      -0.00000171
Pb      15.35554879      20.58602801       1.00976247       0.00000051       0.00000373       0.00000269
Pb       5.75831486      18.48520861      17.84236586      -0.00000694      -0.00000401      -0.00000330
Pb       7.70293404      14.83336697       1.01389987      -0.00000023       0.00000606       0.00000430
N        4.18096541      11.28947253       1.02313746      -0.00001166      -0.00000701      -0.00000331
N        9.28029101      22.02908920      17.83311433       0.00000027      -0.00000371       0.00000580
N       -0.25632120      16.73891189       0.98284755       0.00000535      -0.00000309       0.00000484
N       13.71757359      16.57967855      17.87335200       0.00000067      -0.00000268       0.00000029
I       15.99915415      14.94278888       5.85527479      -0.00000742      -0.00001322      -0.00000327
I       16.63194159      18.75784017       3.42389978      -0.00000301       0.00001130       0.00000017
I        7.04623839      20.30418831       5.80275754       0.00000167       0.00000016      -0.00000125
I        6.42378269      12.99597186       3.42411480       0.00000002       0.00000431       0.00000489
I       14.34347332      11.40408070       3.46816145      -0.00000611       0.00000200      -0.00000486
I       37.44869412      22.69699928       5.86333815       0.00000096       0.00000148      -0.00000702
I        8.72688047      16.79606941       3.41669666       0.00000587       0.00000293      -0.00000066
I        4.74310178      16.50410746       5.81017571       0.00000181       0.00000496       0.00000238
I        0.76914150      14.40869674       3.39850660      -0.00000318      -0.00000407       0.00000375
I       12.70090770      18.89152203       5.82835191      -0.00001137      -0.00000554      -0.00000286
I        3.07633492      20.08341584       3.37993074       0.00000324      -0.00000175       0.00000400
I       10.39366389      13.21680600       5.84694830      -0.00000288      -0.00000315      -0.00000369
H        2.21591777      12.08407101       5.82522739      -0.00000265      -0.00000177       0.00000170
H       10.04684379      20.23436043       2.50688284       0.00000760      -0.00000038       0.00001010
H        0.48163269      18.51857238       6.68359984       0.00000157      -0.00000381      -0.00000583
H       11.77455012      15.75295335       3.44113200      -0.00000380       0.00000560       0.00000157
H        3.42309411      13.06584120       6.71992668      -0.00000181      -0.00000498      -0.00000363
H       11.25407996      21.21610617       3.40152841       0.00000945       0.00000235       0.00000524
H        1.69547657      17.54726694       5.78600174      -0.00000335      -0.00000309       0.00000019
H       12.98823504      14.78168330       2.54328811       0.00000454      -0.00001598      -0.00001211
H        3.43129707      13.05708505       4.93185769      -0.00000563       0.00000211       0.00000013
H       10.03873480      20.24310028       4.29495300       0.00000380      -0.00000106      -0.00000024
H        0.47248937      18.51435256       4.89593412      -0.00000604       0.00000093       0.00000247
H       12.99767871      14.78581291       4.33095230      -0.00000189       0.00001239      -0.00001014
H        5.22449285       0.46662332       5.89863005      -0.00000715       0.00000498      -0.00000470
H        8.30422600      21.71090608       3.38531375       0.00000646      -0.00000775      -0.00000104
H       -0.10502795      16.12908806       4.96875253      -0.00000354      -0.00000477      -0.00000446
H       13.57518256      17.17109085       4.25813925      -0.00000672       0.00000254       0.00000462
H        4.01500990      10.68392226       6.66867144       0.00000818      -0.00000329       0.00000571
H        8.36294811      10.58825142       3.44205173       0.00000076      -0.00000403       0.00000686
H       -1.25113456      17.03425527       5.80356427      -0.00000112       0.00000385      -0.00000625
H       13.56630231      17.16789243       2.59970274       0.00000109      -0.00000692      -0.00000827
H        5.16577692      11.58931362       5.84158902       0.00000042      -0.00000424       0.00000104
H        9.51385115      11.49364258       2.61517216      -0.00001126      -0.00000861      -0.00000199
H       -0.09638225      16.13234053       6.62719145       0.00000174       0.00000340      -0.00000651
H       14.72116224      16.26593862       3.42312728       0.00000808      -0.00000243       0.00000716
C        3.24501378      12.45814981       5.82803596       0.00000279      -0.00000082      -0.00000427
C       10.22497911      20.84204087       3.39877012      -0.00000881      -0.00000653      -0.00000534
C        0.66356133      17.91400731       5.79023352      -0.00001041       0.00000152       0.00000386
C       12.80646147      15.38620477       3.43671477       0.00000306      -0.00000323       0.00000652