768
Lattice="25.474366558737515 0.05409075088716251 0.1081628215731178 0.04193380380336498 25.466469663111287 0.053669375875309414 -0.1624688441775422 -0.17275154907053208 25.632979484630784" Properties=species:S:1:pos:R:3:forces:R:3 energy=-3348.0908778582575 stress="0.0057463776921669735 8.852729392210143e-05 -5.073361408608785e-05 8.852729392210143e-05 0.0071542829706170786 -0.0001062400007915758 -5.073361408608785e-05 -0.0001062400007915758 0.00524728013969283" free_energy=-3348.0908778582575 pbc="T T T"
I        5.26082267       3.90268084       3.31432182      -0.00000270       0.00000452       0.00000651
I        5.33524681      15.59799148       9.74475512       0.00000272       0.00000185       0.00000462
I        5.09667885      12.82483330       6.13921056       0.00000215      -0.00000084       0.00000652
I        6.37922592       6.45473248       6.92850234      -0.00000001       0.00000138      -0.00000042
I       24.44519237      16.57746977       9.83517384       0.00000074       0.00000199      -0.00000429
I       11.61484195       2.87182704       3.34001672       0.00000328       0.00000344      -0.00000067
I       11.45887168       6.64856530       6.15129355       0.00000156      -0.00000788       0.00000681
I       25.49956314      13.03873754       7.02148824       0.00000077       0.00000310      -0.00000040
I        8.66949766      15.37183547      12.68825511      -0.00000275       0.00000363       0.00000063
I        2.78962274       9.04688034       6.24627691      -0.00000559       0.00000302      -0.00000286
I        2.31128386       4.02931786       6.77945775       0.00000492       0.00000253      -0.00000430
I        8.70316271      15.41204354       6.84140154       0.00000308       0.00000087       0.00000041
H        1.68234805       5.70147524       4.20388349      -0.00000076       0.00000179      -0.00000003
H        7.99386517       5.97421916       4.22331977       0.00000704      -0.00000150       0.00000126
H        7.41680775      12.38861282       3.33922925      -0.00000073      -0.00000535      -0.00000313
H        3.41859027       7.37478017       8.82188037       0.00000139      -0.00000749      -0.00000322
H        3.47903191      12.28550195       8.82823053       0.00000197       0.00000127       0.00000193
H        8.00433332       5.98010548       2.42775658      -0.00000010      -0.00000012      -0.00000415
H        8.45825479       7.84902792       9.74849324       0.00000508       0.00000659      -0.00000071
H        3.41288402       7.37108831      10.62263115       0.00000445       0.00000075      -0.00000183
H        1.68799686       5.70512353       2.40313256       0.00000462       0.00000112      -0.00000317
H        9.37984411       5.25431597       3.33131307       0.00000052      -0.00000124      -0.00000073
H        8.05618913      13.80854985       2.44504183       0.00000323       0.00000072       0.00001129
H        4.04920671       5.95424739       9.72144490       0.00000080       0.00000806      -0.00000101
H        3.28304099       7.52648888       4.15173428      -0.00000055       0.00000445       0.00000726
H        8.20143977      13.85117684      10.58991527       0.00000457      -0.00000734      -0.00000137
H        9.64467933      11.98178245       4.19459274       0.00000369       0.00000192       0.00000128
H        3.56020996      12.04016296       4.16055271       0.00000269      -0.00000000       0.00000400
H        3.28868379       7.53157390       2.47370707      -0.00000315       0.00000052       0.00000430
H        7.60038557      12.51648844       9.74381148      -0.00000158      -0.00000168      -0.00000145
H       10.25869044      13.32005078       3.36280715      -0.00000087      -0.00000271      -0.00000545
H        3.56333709      12.05059805       2.47903143      -0.00000322      -0.00000258       0.00000374
H        3.89418204       6.19282615       3.31088759      -0.00000628       0.00000882      -0.00000114
H        9.91883414       7.45073361       4.18212533       0.00000130       0.00000158      -0.00000393
H        9.65763533      11.98536674       2.51669471      -0.00000291       0.00000201       0.00000292
H        2.26045763      11.36051933       3.31300593       0.00000756      -0.00000568      -0.00000121
C        2.85638175      12.34999690       9.72609604      -0.00000433      -0.00000153      -0.00000119
C        8.62153009       6.04462258       3.32938294      -0.00001388       0.00000388       0.00000403
C        9.21656289       7.05871547       9.75040191      -0.00000116      -0.00000078       0.00000140
C        3.30798918       6.75980253       9.72068188      -0.00000861       0.00000279       0.00000364
Pb       5.93546018       9.75975126       6.54181865      -0.00000264       0.00000051       0.00000184
Pb       5.55771977      16.12474046       6.53720737       0.00000068       0.00000400      -0.00000182
Pb      24.62220663      16.05788893      13.04343744      -0.00000127      -0.00000178      -0.00000188
Pb      24.66078525      16.10382437       6.61890488      -0.00000078       0.00000574      -0.00000431
N        3.15575029       6.92612826       3.31042213       0.00001585      -0.00001121      -0.00000439
N        8.33844854      13.25007316       9.75062475       0.00000175       0.00000118       0.00001942
N        9.52063071      12.58646265       3.35599152      -0.00000109      -0.00000261      -0.00000475
N        2.95352106      12.13330985       3.31909447       0.00000001       0.00000268      -0.00000852
I        6.22324184      10.23147650       9.73978741      -0.00000094      -0.00000043      -0.00000263
I        6.15104800       9.28611611       3.32555477       0.00000232       0.00000015      -0.00000069
I        6.34350962       6.41520316      12.53754431      -0.00000157      -0.00000797      -0.00000202
I        5.12643606      12.86660009       0.52752505      -0.00000042       0.00000177      -0.00000114
I       25.26100671      10.26557184       3.41595788      -0.00000394       0.00000110      -0.00000203
I       12.57727358       9.20062001       9.76547869      -0.00000034       0.00000135      -0.00000593
I       12.81386160      13.05631902      -0.23739134       0.00000352      -0.00000206      -0.00000236
I       24.15058000       6.62877886      13.41283814      -0.00000574      -0.00000026       0.00000075
I        9.15590677      10.42449041       6.26522317      -0.00000073      -0.00000181      -0.00000206
I        2.21789795      16.63874093      25.47631534       0.00000092       0.00000035       0.00000368
I        2.74152130       8.99800360      13.20921382       0.00000210       0.00000076       0.00000252
I        9.18956979      10.46469332       0.41837581       0.00000092      -0.00000026       0.00000001
H        2.09480180      11.56286074       9.72104122       0.00000165       0.00000405       0.00000130
H        9.81713359      12.02943865       8.86094068      -0.00000365       0.00000750      -0.00000327
H        9.84419280       7.12910509       8.85643945       0.00000019       0.00000172       0.00000266
H        3.02707651      14.24663294       3.33151458       0.00000152       0.00000457       0.00000204
H        1.05169630       7.12198223       3.30430624       0.00000350      -0.00000419      -0.00000377
H       10.44227210      13.44791363       9.76743283      -0.00000215      -0.00000128      -0.00000204
H        8.04195850      13.80710419       4.24568516      -0.00000081      -0.00000080       0.00000657
H        1.64398507      13.53460065       2.42862470       0.00000517       0.00000144       0.00000723
H        3.47790741      12.27490755      10.62389860       0.00000111      -0.00000481       0.00000643
H        9.80286547      12.02796424      10.66158275       0.00000404      -0.00000300       0.00000293
H        9.83379492       7.12323593      10.65200390      -0.00000097      -0.00000006      -0.00000020
H        1.64282357      13.52399472       4.22429303      -0.00000312       0.00000578       0.00000507
H        2.86140325      14.44897952       9.73952943      -0.00000563      -0.00000031      -0.00000079
H        8.62473540       8.14334786       3.33642800      -0.00000040       0.00000020      -0.00000116
H        7.90950926       5.64671156      10.57934264      -0.00000099      -0.00000261      -0.00000021
H        1.81788877       5.54976046       8.87394399      -0.00000537       0.00000871       0.00001003
H        1.55853552      13.75889426      10.57351636      -0.00000274       0.00000013      -0.00000328
H        9.92858650       7.45665379       2.50049564      -0.00000070      -0.00000178       0.00000154
H        9.21333823       4.95999065       9.74339519      -0.00000428       0.00000094      -0.00000252
H        1.20672550       6.88341599       9.71479075      -0.00000019       0.00000143      -0.00000227
H        1.56164783      13.76932769       8.89199445       0.00000028       0.00000034      -0.00000117
H        8.21440830      13.85474648       8.91201722      -0.00000238       0.00000480      -0.00000206
H        7.91922824       5.65260303       8.89771202       0.00000020      -0.00000590      -0.00000427
H        1.81219456       5.54465740      10.55197125      -0.00000332      -0.00000740       0.00000613
C        1.79291852       6.31643145       3.30506346      -0.00000667       0.00000333       0.00000746
C        9.70180251      12.64172130       9.76089392      -0.00000163      -0.00000076      -0.00000845
C        8.15727396      13.19480825       3.34573919      -0.00000056       0.00000799      -0.00000524
C        2.26549176      13.45950195       3.32644018      -0.00000393      -0.00000254      -0.00001240
Pb       5.51760682      16.08187393      12.95729321      -0.00000264      -0.00000438      -0.00000121
Pb       5.89282057       9.71935192      12.93377584      -0.00000376      -0.00000445      -0.00000284
Pb      25.03853178       9.73883899       6.62350709       0.00000370      -0.00000367       0.00000425
Pb      24.99742639       9.69534500      13.01990774       0.00000281      -0.00000262      -0.00000087
N        2.16834431      13.67618504       9.73344770       0.00001226      -0.00000150       0.00000098
N        9.31495730       7.36800825       3.33757572       0.00000419      -0.00000315      -0.00000155
N        8.52312294       5.73533633       9.74224816       0.00000384      -0.00000416       0.00000055
N        1.94515454       6.15011186       9.71526784       0.00000665      -0.00000487      -0.00000775
I        5.17958428       3.81630791      16.13081767       0.00000308      -0.00000030      -0.00000354
I        5.25400101      15.51162371      22.56125208       0.00000725       0.00000122       0.00000013
I        5.01544379      12.73845904      18.95572851       0.00000571       0.00000231       0.00000306
I        6.29797757       6.36835939      19.74500585      -0.00000296       0.00001126       0.00000052
I       24.36394940      16.49107047      22.65165784       0.00000482       0.00000821      -0.00000216
I       11.53362745       2.78548882      16.15650803      -0.00000323       0.00000056      -0.00000532
I       11.37763472       6.56219098      18.96776618       0.00000024      -0.00000296       0.00000060
I       25.41834608      12.95237018      19.83795887      -0.00000274      -0.00000272       0.00000101
I        8.75072555      15.45821284      -0.12821384      -0.00000056       0.00000323      -0.00000229
I        2.70839129       8.96053975      19.06277516      -0.00000090      -0.00000023       0.00000071
I        2.23005347       3.94299475      19.59590122       0.00000485       0.00000099       0.00000450
I        8.62192812      15.32565333      19.65792188      -0.00000436       0.00000292       0.00000178
H        1.60110335       5.61510405      17.02032111       0.00000315       0.00000536      -0.00000184
H        9.29856663       5.16792270      16.14778874      -0.00000146       0.00000681       0.00000202
H        7.97495362      13.72223488      15.26154651      -0.00000034       0.00000836      -0.00000156
H        3.33731662       7.28843801      21.63836556       0.00000453      -0.00000426      -0.00000002
H        2.01356910      11.47645783      22.53753072      -0.00000912      -0.00000799       0.00000314
H        7.91266910       5.88786675      17.03988745      -0.00000363      -0.00000132      -0.00000111
H        9.76298532       7.04265019      21.67294122       0.00000146       0.00000464      -0.00000036
H        3.33158611       7.28476419      23.43911578       0.00000679      -0.00000122       0.00000371
H        1.60682407       5.61880175      15.21957040       0.00000172      -0.00000135      -0.00000333
H        7.92300674       5.89373412      15.24432318       0.00000292      -0.00000162      -0.00000572
H        7.96072002      13.72073102      17.06218994       0.00000249      -0.00000795      -0.00001018
H        3.96796225       5.86793284      22.53795244      -0.00000090      -0.00000172      -0.00000138
H        3.20181433       7.44010799      16.96828545      -0.00000493       0.00000500      -0.00000545
H        8.12022401      13.76477572      23.40645310      -0.00000204       0.00000174       0.00000315
H        9.57636906      11.89900946      15.33315443       0.00000140       0.00000835       0.00000875
H        3.48212188      11.96416769      15.29556457       0.00000211      -0.00000145      -0.00001350
H        3.20751295       7.44524194      15.29025831      -0.00000480      -0.00000520      -0.00000344
H        7.51914560      12.43010392      22.56033809      -0.00000127       0.00000061      -0.00000114
H        9.56343368      11.89541678      17.01105333      -0.00000176      -0.00000476       0.00000628
H        2.17923476      11.27411933      16.12955071       0.00002130       0.00002005      -0.00000003
H        3.81297574       6.10646663      16.12741650      -0.00000223       0.00000047       0.00000568
H        9.83763500       7.36435355      16.99855971      -0.00000757      -0.00000668      -0.00000206
H       10.17744690      13.23368302      16.17926806       0.00000234       0.00000522       0.00000073
H        3.47897818      11.95379557      16.97708616       0.00000615      -0.00000022      -0.00000093
C        2.77515139      12.26359095      22.54259140       0.00002115       0.00000968       0.00000198
C        8.54027018       5.95824668      16.14590403       0.00000702      -0.00000431       0.00000285
C        9.13533246       6.97227729      22.56688878       0.00000087       0.00000065       0.00000177
C        3.22672117       6.67346589      22.53717163       0.00000051      -0.00000117      -0.00000625
Pb       5.85424152       9.67337601      19.35831450      -0.00000816      -0.00000303      -0.00000436
Pb       5.47648878      16.03835752      19.35370521       0.00000105       0.00000381      -0.00000143
Pb      24.54095950      15.97149397      25.85991947       0.00000309       0.00000186       0.00000470
Pb      24.57955652      16.01745633      19.43538596      -0.00000402       0.00000117       0.00000008
N        3.07454848       6.83977291      16.12695045       0.00000072      -0.00000032      -0.00000876
N        8.25721722      13.16367983      22.56715435       0.00000039      -0.00000052      -0.00000223
N        9.43938024      12.50010221      16.17245703      -0.00000227      -0.00000740      -0.00002081
N        2.87229817      12.04691108      16.13561730      -0.00003054      -0.00001883       0.00000001
I        6.14201910      10.14508188      22.55627737       0.00000097       0.00000167       0.00000376
I        6.06983453       9.19975218      16.14204588      -0.00000164       0.00000329      -0.00000289
I        6.26225646       6.32882792      25.35401401      -0.00000735       0.00000356      -0.00000098
I        5.04519622      12.78021775      13.34403143      -0.00000199       0.00000454      -0.00000307
I       25.17977600      10.17918246      16.23244843      -0.00000281       0.00000404      -0.00000147
I       12.49602811       9.11422535      22.58196239       0.00000263      -0.00000261       0.00000408
I       12.73264409      12.96996154      12.57911241      -0.00000307      -0.00000626       0.00000370
I       24.23177645       6.71515304       0.59637107      -0.00000007      -0.00000764      -0.00000144
I        9.07467724      10.33813508      19.08169772      -0.00000621      -0.00000433       0.00000023
I        2.29914280      16.72512354      12.65982912      -0.00000841      -0.00000163       0.00000233
I        2.82274583       9.08439715       0.39272986      -0.00000526      -0.00000279      -0.00000723
I        9.10834480      10.37834105      13.23484036      -0.00000614      -0.00000412       0.00000366
H        3.39666630      12.18850354      23.44040208      -0.00000638      -0.00000655      -0.00000521
H        9.72162257      11.94153432      23.47808102       0.00000507       0.00000096      -0.00000455
H        9.75254218       7.03680654      23.46850544       0.00000144      -0.00000158      -0.00000061
H        1.56274091      13.44815207      15.24509880       0.00000249      -0.00000116       0.00000488
H        0.97049599       7.03563953      16.12075583       0.00000092       0.00000102       0.00000122
H        9.73587949      11.94304069      21.67743869      -0.00000373       0.00000381      -0.00000632
H        7.33555459      12.30227613      16.15568543       0.00000103      -0.00000608       0.00000289
H        1.56162446      13.43764943      17.04076864      -0.00000518       0.00000184      -0.00000340
H        3.39781195      12.19909009      21.64473330      -0.00000180       0.00000200       0.00000791
H       10.36104400      13.36149038      22.58395226      -0.00000009       0.00000169      -0.00000333
H        8.37703017       7.76259523      22.56494964      -0.00000086       0.00000071       0.00000462
H        2.94585535      14.16023406      16.14791077       0.00000316       0.00000904       0.00001850
H        2.78017759      14.36257429      22.55601620       0.00001552       0.00001760       0.00000006
H        8.54352200       8.05697076      16.15288740      -0.00000109       0.00000266       0.00000161
H        7.82826495       5.56028337      23.39582606      -0.00000164       0.00000045      -0.00000121
H        1.73665496       5.46339554      21.69041207      -0.00000020      -0.00000505       0.00000328
H        1.47730004      13.67249458      23.38999145       0.00000867       0.00000294      -0.00000792
H        9.84733117       7.37022657      15.31692962       0.00000514       0.00000382      -0.00000328
H        9.13209583       4.87355294      22.55989207      -0.00000073      -0.00000166       0.00000035
H        1.12545828       6.79702723      22.53127087      -0.00000644      -0.00000345      -0.00000153
H        1.48043038      13.68292185      21.70846891       0.00000731       0.00000074       0.00001069
H        8.13317706      13.76836395      21.72855452      -0.00000227       0.00000192       0.00000201
H        7.83799729       5.56616571      21.71419598       0.00000032       0.00000141       0.00000035
H        1.73095135       5.45827229      23.36844005       0.00000155       0.00000237       0.00000185
C        1.71171313       6.23008427      16.12152233      -0.00000228      -0.00000115       0.00000818
C        9.62056290      12.55530888      22.57740348      -0.00000194       0.00000206       0.00000244
C        8.07602991      13.10846297      16.16222358       0.00000353       0.00000288       0.00002380
C        2.18426944      13.37310392      16.14290333      -0.00000174      -0.00000108      -0.00000504
Pb       5.59882534      16.16824668       0.14081020      -0.00000277      -0.00000281       0.00000208
Pb       5.97405530       9.80570915       0.11728336      -0.00000050      -0.00000167       0.00000639
Pb      24.95729110       9.65246241      19.44000200       0.00000288      -0.00000074      -0.00000307
Pb      24.91617966       9.60895750      25.83640413      -0.00000105       0.00000369      -0.00000161
N        2.08711828      13.58978112      22.54992962      -0.00003858      -0.00001680      -0.00000244
N        9.23372755       7.28161693      16.15403307       0.00000422       0.00000218       0.00000869
N        8.44188502       5.64890197      22.55873612       0.00000099       0.00000014      -0.00000165
N        1.86390310       6.06373892      22.53174402       0.00000112      -0.00000144       0.00000767
I        5.28178229      16.63594759       3.34116268       0.00000224      -0.00000673      -0.00000388
I        5.31428191       2.86477447       9.71792489       0.00000527       0.00000501       0.00000137
I        5.07569277       0.09159392       6.11237589       0.00000038      -0.00000304      -0.00000118
I        6.40020660      19.18797369       6.95534707      -0.00000263      -0.00000087       0.00000413
I       24.42421794       3.84422009       9.80833161       0.00000257      -0.00000024      -0.00000739
I       11.63582094      15.60506868       3.36684764       0.00000051       0.00000130      -0.00000006
I       11.47983179      19.38179976       6.17814278      -0.00000153      -0.00000005      -0.00000048
I       25.47857079       0.30549821       6.99463614       0.00000180       0.00000347       0.00000193
I        8.64852123       2.63855790      12.66147630       0.00000196       0.00000332      -0.00000108
I        2.81057641      21.78010118       6.27313187      -0.00000127       0.00000313      -0.00000189
I        2.33226897      16.76258152       6.80627576      -0.00000592      -0.00000384       0.00000274
I        8.68218043       2.67878257       6.81456934       0.00000069      -0.00000043       0.00000435
H        1.70898556      18.43836495       2.42994814       0.00000339       0.00000449      -0.00000840
H        9.40081562      17.98754810       3.35815107       0.00000139      -0.00000090      -0.00000070
H        7.39583007      -0.34460554       3.31236231      -0.00000069       0.00000140      -0.00000113
H        4.07018817      18.68746184       9.74829597      -0.00000873       0.00001378       0.00000471
H        2.07386963      -1.17034195       9.69423043       0.00000141      -0.00000010      -0.00000350
H        8.01486587      18.70745787       4.25019775       0.00001220      -0.00000090      -0.00001047
H        8.47921684      20.58225164       9.77535652      -0.00000077      -0.00000126      -0.00000042
H        3.43960161      20.10801591       8.84874705      -0.00000490       0.00000582      -0.00000633
H        1.07265198      19.85519431       3.33114607       0.00000775      -0.00000480      -0.00001123
H        8.02527783      18.71333611       2.45463425      -0.00000312       0.00000102      -0.00001414
H        8.03525462       1.07529853       2.41815254      -0.00000654       0.00000335       0.00001149
H        3.43387350      20.10429526      10.64949874       0.00000065       0.00000585      -0.00000328
H        3.30398763      20.25974341       4.17857537       0.00000055       0.00000143       0.00000607
H        7.62134062      25.24968633       9.77066660      -0.00001271       0.00000088       0.00000951
H        9.62367114      -0.75143209       4.16781035       0.00000599      -0.00000192      -0.00000480
H        3.53925660      -0.69307450       4.13367594      -0.00000189       0.00000467       0.00000648
H        3.30963143      20.26484801       2.50054758       0.00000364      -0.00000271      -0.00000306
H        8.23530798      26.58798658       8.93890129       0.00000498      -0.00000165       0.00000001
H       10.23771908       0.58681021       3.33600690      -0.00000306      -0.00000214      -0.00000149
H        3.54235587      -0.68260791       2.45215452       0.00000163      -0.00000122       0.00000250
H        3.91515859      18.92610407       3.33771367      -0.00000680       0.00000632       0.00000150
H        9.93982478      20.18397392       4.20894357       0.00000830      -0.00000305       0.00001389
H        9.63668032      -0.74789039       2.48991210      -0.00000118       0.00000095      -0.00000344
H        2.23948881      -1.37269854       3.28613779       0.00000126       0.00000209       0.00000497
C        2.83543338      -0.38319022       9.69927645       0.00000061       0.00000272       0.00000084
C        8.64250298      18.77785607       3.35624048      -0.00001085       0.00000313       0.00002629
C        9.23753309      19.79194703       9.77726609      -0.00000027      -0.00000577      -0.00000073
C        3.32898071      19.49302673       9.74753780      -0.00000257      -0.00002156      -0.00000275
Pb       5.95640919      22.49298415       6.56865943       0.00000433      -0.00000221      -0.00000488
Pb       5.53674836       3.39149449       6.51037504       0.00000512       0.00000371      -0.00000162
Pb      24.60124585       3.32463821      13.01659755      -0.00000642       0.00000065      -0.00000435
Pb      24.63979939       3.37058832       6.59206135       0.00000344       0.00000601       0.00000062
N        3.17671105      19.65938992       3.33725570       0.00000436      -0.00001124       0.00000080
N        8.35938113      25.98329426       9.77748954       0.00002223       0.00001171      -0.00000191
N        9.49965385      -0.14677256       3.32918877      -0.00000033       0.00000029      -0.00000566
N        2.93255426      -0.59990958       3.29222976      -0.00000098      -0.00000272      -0.00000129
I        6.24418195      22.96471118       9.76662769       0.00000186      -0.00000804      -0.00000764
I        6.17201866      22.01935002       3.35239419      -0.00000147       0.00000415       0.00000213
I        6.36445421      19.14843508      12.56435440       0.00000467       0.00000015       0.00000433
I        5.10546393       0.13336794       0.50066240       0.00000267      -0.00000227       0.00000079
I       25.28197482      22.99881080       3.44278977      -0.00000176      -0.00000287       0.00000770
I       12.59824761      21.93385707       9.79231224      -0.00000099      -0.00000433       0.00000522
I       12.79288144       0.32309090      -0.26423782       0.00000178      -0.00000625       0.00000091
I       24.17151489      19.36201651      13.43969334      -0.00000013      -0.00000075      -0.00000415
I        9.17685942      23.15772520       6.29207386      -0.00000182      -0.00000389       0.00000244
I        2.19692006       3.90551592      25.44948758       0.00000281       0.00000293       0.00000330
I        2.76248113      21.73125077      13.23604802       0.00000053      -0.00000465       0.00000325
I        9.21053370      23.19795144       0.44521496      -0.00000368      -0.00000532      -0.00000281
H        3.45694110      -0.45823843      10.59709530      -0.00001032      -0.00000408       0.00000273
H       10.46319758      26.18120315       9.79427492       0.00000814       0.00000317      -0.00000215
H        9.86517537      19.86235521       8.88331402       0.00000365       0.00000243      -0.00000271
H        3.00611817       1.51341335       3.30467130      -0.00000090      -0.00000289       0.00000000
H        1.70333808      18.43468742       4.23069759       0.00000412      -0.00000476       0.00001482
H        9.82385229      24.76119706      10.68837822       0.00000028      -0.00000047      -0.00000100
H        8.02096244       1.07390999       4.21879515      -0.00000055      -0.00000420       0.00000827
H        1.62299267       0.80139606       2.40182114      -0.00000057       0.00000103      -0.00000327
H        3.45810614      -0.44769975       8.80142779      -0.00000330      -0.00000475      -0.00000318
H        9.83809336      24.76274442       8.88773492      -0.00000148       0.00000147      -0.00000083
H        9.85475092      19.85646204      10.67887805       0.00000228       0.00000305       0.00000401
H        1.62189366       0.79077155       4.19748957      -0.00000324      -0.00000204      -0.00000534
H        1.54068910       1.03609137       8.86509955       0.00000044      -0.00000108       0.00000495
H        8.64571155      20.87658116       3.36326421       0.00000427      -0.00000446      -0.00000157
H        7.93048804      18.37991331      10.60617001      -0.00000801       0.00000361       0.00000840
H        1.83887752      18.28301541       8.90076220      -0.00000536      -0.00000304       0.00000071
H        2.84041207       1.71579199       9.71264487      -0.00000425       0.00000075       0.00000281
H        9.94954590      20.18987795       2.52731316      -0.00000278      -0.00000225       0.00001432
H        9.23433374      17.69322195       9.77022780       0.00000135      -0.00000602      -0.00000011
H        1.22771665      19.61666420       9.74161990       0.00000419      -0.00000161       0.00000293
H        1.53753851       1.02570704      10.54662063       0.00000557      -0.00000328       0.00000881
H        8.22236953      26.58436953      10.61679921       0.00000067      -0.00000020       0.00000402
H        7.94022571      18.38583002       8.92454010      -0.00000212      -0.00000068       0.00000218
H        1.83316110      18.27788707      10.57878923       0.00000040       0.00000190       0.00000420
C        1.81389368      19.04966132       3.33188836      -0.00001695       0.00001384       0.00000110
C        9.72275533      25.37498623       9.78771495      -0.00001325      -0.00000663      -0.00000089
C        8.13630266       0.46158423       3.31887264       0.00000220       0.00000361      -0.00000274
C        2.24453006       0.72628516       3.29961380       0.00000251       0.00000077       0.00000370