768
Lattice="40.227587415121015 -0.7682833808457515 1.3263590934115383 0.394859312395313 23.52400323722727 0.25591382290307674 -0.5366011814355014 -0.10491616676151522 18.726843227480614" Properties=species:S:1:pos:R:3:forces:R:3:momenta:R:3 energy=-3636.6471289552046 stress="0.0 0.0 0.0 0.0 0.0 0.0 0.0 0.0 0.0" pbc="T T T"
H        6.95184488       1.00362745       3.44086280      -0.37029035      -0.47793165       0.32376071       0.07161840       0.17055461       0.25728926
H       12.09561608      12.73306207       2.08919278       0.61467367      -0.25140762       0.28483545       0.27156452      -0.03881572      -0.13474000
H        1.68444808       7.28052843       4.17291736       0.08156732      -0.04446232      -0.03022940      -0.06763154       0.17653304       0.13190292
H       17.23740862       6.71731974       2.28473838       0.06006745      -0.54697148       0.08236412       0.15047379      -0.11765621      -0.06522041
H        6.59669116       3.04121121       8.27982963       1.24014122      -0.65842299      -0.25749810      -0.28015779      -0.10270428       0.00997586
H       12.05020876      10.73242597       1.05195767       0.56165936       0.01561497       0.10832478      -0.16352197       0.31819662      -0.04534324
H        3.29220909       6.02437681       7.93412177       0.50739752       1.41734809       0.50355154       0.03819449       0.06646312      -0.01708756
H       15.25378887       7.38761157       1.42172859       0.19704122       0.69487734      -0.29272419       0.03721968      -0.06846065      -0.04498221
H        4.38335204       2.42385549       5.23320625       0.40378554       0.00263033      -0.27467595       0.07555103       0.04742584       0.18423560
H       13.86473362      10.50350004       1.07853333      -0.86363336       0.57312582       0.16802254       0.03225854      -0.11659781      -0.18457167
H        4.27709743       7.66278621       8.02008336       0.90359891       0.13187965       0.17554934       0.05983027       0.01801345       0.03792454
H       14.33369058       6.17748475       2.26373115      -1.45743935      -0.78801230      -0.21210335       0.00491306       0.26628822       0.13976280
H        5.63240280       3.86158159       3.35561493       0.27573640      -0.13523098      -0.02900615      -0.06192947      -0.13420914      -0.04985664
H       15.17996849      12.51059331       2.14005931      -0.22124753       0.00900881       0.06493280       0.17032008      -0.22183562      -0.08463779
H        4.65908521       7.38878130       3.51062024      -0.64552081      -0.79008975      -0.13261213       0.11225089       0.14378855       0.00304693
H       15.69457233       4.44336059       3.56595688      -0.43073512      -0.40159995       0.23423047      -0.32005440      -0.14309628       0.04426217
H        7.19786161       3.02708433       2.63155431       0.50047163       0.35936704      -0.16899409      -0.11790603       0.10391025      -0.20383061
H       14.23902265      13.71548808       3.00227520      -0.83616822       0.37297499      -0.48841794      -0.09394079      -0.06471761       0.02304694
H        3.48711740       6.00278743       3.22094882       0.10034916      -0.35829040      -0.28398872       0.23886690       0.13567697       0.06845247
H       14.90743624       7.88894811       6.19644898      -0.09351273      -0.17872076       0.05165781      -0.10339285       0.02991078      -0.18028002
C        6.12598256       1.83069497       3.77370971       0.54722626      -1.42898357       0.91123351       0.76063970       0.73829959       0.41442711
C       13.09880175      12.23306258       1.96774698      -1.47255239       1.14347082       0.08411923      -0.46712097       0.54216373      -0.80825067
C        2.71876566       7.71442998       4.15912493      -0.36836474       0.95527446       1.07573185       0.02950405      -0.10992552       0.10134112
C       16.35474518       6.07714641       2.50773935       0.64918100      -0.08609400       0.86562087      -1.03511555       0.12197873      -0.42920533
N        5.10229248       1.55350985       4.61175563      -0.21134246      -1.15310890       1.15025064       0.69536864      -0.03718077       0.10983863
N       12.99415305      11.03617153       1.39283733       0.59425543      -0.54128941      -0.37883756      -0.89843276      -0.51613499       0.15974559
N        3.45419525       7.04811088       8.28989092      -2.39316734      -0.64430903       0.38850346      -0.72144832       0.68575579       0.69557068
N       15.23180110       6.57160423       2.02540685       0.86208621      -0.51589907       0.53665811      -0.58797286      -0.73590575       1.27253341
N        6.35743193       3.02562827       3.29862057      -1.31212035       1.72312429      -1.05126269       0.15180250      -0.63664360       0.56620456
N       14.22187833      12.90795362       2.34195504       1.29637487      -1.44258203      -0.06564700       0.56577110      -0.20385568      -0.10415559
N        3.71535024       6.91352908       3.67059437       0.34503647       1.94918600       0.61361302       0.20710144       1.14572067       0.59895021
N       16.49843070       4.99987549       3.29988964       0.83538763       1.58564781      -0.81102993       1.02110614       0.39350205       0.59173480
Pb       0.36077196       2.72092138       1.89502774      -0.07704330       0.45683953      -0.18109715       1.72010221      -2.22835633      -0.84174045
Pb      18.27742815      10.55912809       4.65218895       0.00787311       0.39642021       0.04135221       1.52700963      -1.58171053      -2.49276192
Pb       8.56628007       8.66925267       1.72982205      -0.29746991      -0.18350452      -0.32740494      -1.28099080      -0.29108149       1.43965822
Pb      10.70327635       4.81283432       4.10371717      -0.20727300      -0.16285939      -0.08151002       1.26083934       1.60206908      -4.35332220
I       39.33809778       4.19921280       5.47616188       0.13291904       0.15527728      -0.38284848      -1.79071671       5.21599052      -0.00147615
I       39.48987890       8.03199913       2.57463094      -0.11461673       0.11714332       0.43313606      -1.13656772       0.01791546      -1.92045974
I        9.39528190      10.26451089       4.33893967       0.03235748       0.39452121       0.14638262       0.19164414       0.86592307      -2.24750567
I        9.45600049       3.02137543       1.69621550       0.22487804      -0.11897724      -0.15867803      -0.31549837      -0.32350266       0.85815663
I       17.45284991       0.98298023       2.08763505       0.16157248       0.00010979       0.13664416       0.71819803       0.23166719      -0.60718630
I        1.55658346      12.52589139       4.19016361       0.07418500      -0.13515386       0.07200491      -0.81887665      -0.72160006       0.72799617
I       11.47912710       7.15716165       1.79544704       0.32310052       0.02634216       0.30484325       1.13102950      -3.37645835      -0.81394463
I        7.45986760       6.27678983       3.42879228       0.23068693       0.05440693       0.82115793      -0.11856008      -4.41226793      -1.70427042
I        3.27840665       4.14960895       1.62230639      -0.29688557      -0.24547404       0.02627479       2.40986246       3.92872255      -1.21349855
I       15.17281278       9.87423223       4.52531444       0.16314572      -0.15636685      -0.06145819      -0.44294086       0.30828218       0.92584793
I        5.67753590       9.84006620       1.96539260      -0.34443343      -0.01240251      -0.17164465      -4.14156655       0.58156739       3.18412009
I       13.44261068       3.29233595       4.45967737      -0.03727983       0.14751490      -0.09487330      -0.19646276       0.38028451       0.30497357
H        6.59571628       0.66725636       9.04387548      -1.35900114       0.47308830       0.01670657      -0.27645557      -0.06676352      -0.23738747
H       11.74216171      12.88784088       6.82395736       0.07804538       0.06737511       0.25995078       0.04272185       0.00859868      -0.05137120
H        1.52830282       6.91074522       8.74387187      -0.72735024       0.05386050       0.61516428      -0.09678604       0.02937929      -0.10771494
H       16.89091324       6.59511297       6.72905875       1.02031028       0.87423806      -0.59130453      -0.39263771       0.10187513      -0.10069853
H        5.12632047       0.61647778       5.11765142      -0.08143480       0.99551718      -0.77695165       0.11975598       0.00366660      -0.09979201
H       11.49374273      10.61494291       5.89415374      -0.55190354       0.05212953      -0.09693278      -0.27750347       0.04715952       0.03047206
H        1.96075329       9.35049850       5.18692625       0.87026602      -0.09817046      -0.35967436       0.13182054       0.14522436       0.21221443
H       17.06086118       4.24336938       7.31351851      -0.90468100       0.52909030      -0.26862507       0.04111578       0.12766030       0.11729899
H        4.94773742       3.13911701       8.34766160      -0.40310433      -0.08544730       0.29417624      -0.03865746      -0.02618609      -0.11493434
H       13.28146715      10.50762799       5.94048891      -0.31890881      -0.18752838      -0.14335781      -0.06289720      -0.06409585       0.22187275
H        3.79085465       9.41679757       4.93092425      -1.42996459      -0.81708681      -0.35337493      -0.16611378       0.20052289      -0.06929723
H       15.24381673       4.24023809       7.28260153      -0.59826156      -0.75869788       0.42199286       0.16709559       0.19094281      -0.31228458
H        3.57010369       1.20892745       9.50836914       1.32454629      -0.73931790      -0.04873723       0.01381386      -0.12305407      -0.06167185
H       14.85294842      12.43491974       6.64143717       0.35433166      -0.46013409      -0.14351909       0.07704076       0.02279240      -0.04028675
H        3.07528153       9.19802839       9.82537497       1.37012547       1.04699077       0.19507620      -0.01752877      -0.07538329      -0.15676542
H       13.77671111       6.58846472       6.64454534       0.76249824       0.17717134       0.00080838      -0.05091205      -0.06701067       0.31723816
H        4.49351239      -0.28814475       9.83543778       0.13682080      -0.41513067       0.03342299       0.06992944      -0.01143893       0.16182852
H       14.04037687      13.83754751       7.17692077      -0.20366916       0.55652654       0.46084749      -0.06635476      -0.09176249       0.10131005
H        1.38045058       9.04104787       9.91357201      -0.44838548      -0.17754041       0.05215574       0.17965185      -0.09481358       0.03846252
H       17.45051750       4.81855980       3.72428429      -0.76765867       0.05102063      -0.46806233       0.15126701       0.04543193       0.17021128
C        5.60858329       1.24996630       9.01549433       1.49138977      -0.07018590       0.06447729       0.41454291      -0.00759975       0.08272758
C       12.63180801      12.26586318       6.66422417       0.87616738      -0.16000546      -0.10560794      -0.54542768      -0.82742927      -0.21304320
C        2.37750178       7.56537051       8.91487838       1.17729936      -0.81717813      -1.72408557      -0.39211805      -0.14977388      -0.49282098
C       15.95412366       6.10087665       6.75173158      -0.37657383      -1.33913584       1.04657445       0.33124172      -0.24434262      -0.02255978
N        5.74452248       2.53933041       8.56748486      -1.47454977      -0.04256453       0.35700880       0.48854664      -0.59967205       0.03697744
N       12.39302219      10.97530359       6.23724483       1.17905869       0.25947967       0.43384920       0.08675147      -0.76964210      -1.26770778
N        2.82175101       8.99362097       4.69618521       0.79609460      -0.79013455      -0.51610057       1.03669652       0.59240630       0.42058688
N       16.07871587       4.78178817       7.16292174       0.79865005       0.67932081      -0.54812646       0.20593570       0.14740136       0.16954639
N        4.48376294       0.65953728       9.44055502      -0.67806827       1.52221096      -0.61600174      -0.11801169      -0.61454652      -0.44936276
N       13.93183646      12.85628009       6.85479759      -1.45706138      -0.02282331      -0.62052238       0.70339035      -0.33542977      -0.69904111
N        2.25837630       8.75008272       9.49071970      -0.47452044      -0.99004057      -0.26324495       0.75928711      -0.47093533      -0.86085767
N       14.81242967       6.86114699       6.48681284      -0.45063151      -0.11167967      -0.03437638      -0.35893877       0.06521760       0.02404380
Pb      -0.03904139       3.00763409       6.22679727       0.04612152      -0.08594794       0.40814555      -1.01460917       0.00348105      -1.84619041
Pb      17.82929209      10.53128341       9.12850277       0.51409150       0.08291253      -0.05776190      -3.01927712      -1.30542933      -1.86518296
Pb       8.20217305       8.20813206       6.40466903      -0.16332880      -0.15630377      -0.05087494      -1.16011757       1.47619785      -0.60561256
Pb      10.04577461       4.57193470       8.73149147       0.28382744       0.09063362       0.06123833      -1.51431857      -1.28202856      -1.80630547
I       39.41341601       4.32362567       9.98570716      -0.04999639      -0.24003555       0.07647108       0.67809273      -0.67078389       1.98583918
I       39.70253144       8.10014150       7.79916955       0.00770021       0.00681879      -0.29865032      -3.06509615       2.13455005       1.47715561
I        8.84567952      10.20895070       8.97229145       0.10188576       0.06394176      -0.38142424       4.54316987      -0.55172864      -0.78348020
I        9.20112490       2.84542745       6.29373090      -0.35415611       0.04915765      -0.03710783      -1.27023984       1.30859009      -0.13827271
I       17.58034133       1.34941089       7.02844511      -0.18680239      -0.22258945      -0.13373663       1.14130415      -0.82568324      -1.57483008
I        1.23306177      12.43420946       8.77877970       0.15872898      -0.09682726       0.31582382      -1.23148169      -1.13504455       1.32978705
I       11.41183681       6.67691940       6.50631794      -0.20116486       0.29685650       0.17884040      -0.95588233      -0.05204192       0.35445545
I        7.08004422       6.27267164       8.81099878       0.14764220      -0.14474584       0.00678844      -1.21550298       0.55012411       0.54448048
I        2.99853188       3.98081214       6.45786115      -0.04553296      -0.11226470      -0.20290709       0.73596417       1.10094486       3.54962287
I       14.88227964       9.76905316       8.65692061      -0.14956889      -0.16717307       0.14321504       0.16320570       2.08567990       3.40013444
I        5.50461582       9.69715747       7.10039841       0.11316825       0.10150033      -0.18914494       3.68241459       1.72906506      -0.92977741
I       13.03545569       3.43672894       8.89226092      -0.13743254       0.01685764       0.04685010       0.64574878       0.64433385      -1.77567506
H        6.71840802       1.03113851      13.59747202      -0.01172475      -0.36644445      -0.23108669      -0.05057674      -0.10104548       0.03638736
H       11.30341926      12.75944104      11.93579871       0.11088929      -0.37272638       0.39075537      -0.04210667       0.08219432       0.29650178
H        0.89797757       7.00644076      12.69791784       0.73491446      -0.20689327       0.52764674      -0.01588409       0.10112619       0.13271262
H       16.60175584       6.58581948      10.31303390      -0.45350703      -0.31348578       0.20683702      -0.19940926       0.03866865      -0.04610899
H        6.66344599       3.22792381      16.94534395       1.51851935      -0.40248706      -0.23846453       0.21536679      -0.18355940      -0.00678815
H       10.87867780      10.95748755      10.49491971      -0.76445070      -0.20195741      -0.55995240       0.11445985      -0.10322900      -0.08828535
H        3.63466917       6.08574166      17.10057359      -0.15370899       0.30879115       0.35043789       0.15970835       0.06328323      -0.17387438
H       14.41499667       7.59348330       9.94013886      -0.00045222      -0.85389518       0.92533633       0.12238846       0.01708463       0.02764154
H        3.42118367       0.50149989      13.12923451      -1.13919551       1.11735848      -0.77887302       0.05030820       0.06286190       0.11990473
H       12.74417131      10.81539731       9.79417582       0.49229110      -0.04187918      -0.02487118      -0.14528312      -0.08723434      -0.14873087
H        4.21468386       7.62054622      18.00961185       0.40214593      -0.33380609      -0.66710097      -0.01376414      -0.16000603       0.18907839
H       13.42017473       6.31999987      10.82201486       1.46251659       0.82072031       0.02178695      -0.25221642      -0.03121340       0.01152021
H        4.68323929       2.89124031      12.07938906       0.60434256      -1.23036982       0.51622846      -0.07523806       0.18036593       0.07554094
H       14.75572207      12.79381275      10.45649594       0.58820553      -0.67413989       0.02006916       0.15473307      -0.24826910       0.03426887
H        4.19021447       6.61739198      12.95770793      -0.47425934       0.49402615       0.27937155      -0.12007659       0.21439468       0.12248929
H       15.18519977       4.27464981      11.77975990       0.07166535       0.32693524      -0.25561555      -0.02176079      -0.10943482       0.14230779
H        6.47779059       2.92587067      12.29230218       0.41962789      -0.06625582       0.14971991      -0.16586556       0.14967081      -0.07802529
H       13.81649687      13.77758213      11.83217498      -0.38246006       0.35842736       0.34232656       0.26189550      -0.25426823      -0.11443574
H        2.75925134       5.82717025      11.97750603       0.17799943      -0.79496540      -0.52330570      -0.25032939      -0.08676474      -0.10394784
H       14.52818029       7.39313492      15.07437147      -0.35017835      -0.02107480       0.12480030      -0.03136965       0.02000346       0.11094422
C        5.61804303       1.26860969      13.15068074      -0.13469461       0.52768183      -0.40486225       0.03273171      -0.48397666      -0.38421460
C       12.26737411      12.29250029      11.33183183      -0.01092879       0.02760150      -1.74977732      -0.40051816       0.11627102      -0.35738010
C        2.00644042       7.22840026      13.18454087      -0.46483083       2.18385131      -0.04028894       0.09883788       0.04365151      -0.23811566
C       15.64320145       6.07158272      10.71602372       1.05218091       0.42581119      -0.58646460       0.14563343       0.87985173      -0.03245726
N        4.47058667       0.36013088      13.25087716       0.78741646      -0.49871057       1.22589194      -0.67259990       0.63326671       0.44976686
N       11.98694400      11.31592791      10.42764904       0.35147169       0.74031328       1.51890302       0.33680141      -0.37715092      -0.47692719
N        3.41970309       6.99379645      17.61818977      -0.91685712       0.19384548       0.82632338      -0.14772584       0.04561736      -0.50237184
N       14.40317723       6.73243282      10.56798396      -2.02072011      -0.07211196      -0.85303486      -0.73374366      -0.04935618       0.21421100
N        5.56410419       2.42513416      12.51751633      -0.67468309       1.55144456      -0.65191368      -0.00757526      -0.23412170      -0.28217351
N       13.66347955      12.91084864      11.28583285      -0.14906993       0.02344760       0.00423186      -0.41387041      -0.21479342      -0.19320571
N        3.03845643       6.63267420      12.57493072      -0.84280991       0.39177773       1.10949886       0.15382521       0.11842783      -0.28501987
N       15.92793859       4.85820425      11.24387463       0.67652238      -0.05267824       0.33425283       0.32173530       0.35454331      -0.04888874
Pb      -0.05124610       2.85257428      11.05992560      -0.04518883       0.01026784      -0.08345927       5.15827793       1.27113499      -1.22379068
Pb      17.67117486      10.75742660      13.66023413       0.33584601      -0.41651677      -0.07780994      -2.67333314      -0.20744906      -3.54665413
Pb       7.95166064       8.35145148      11.25645523      -0.13389175      -0.21529492       0.22004314      -3.42374495      -2.24642129       2.03687054
Pb      10.43035346       4.47705406      13.19913071      -0.56441038       0.35880684       0.34890323      -0.42214946       1.00924862      -3.75943718
I       39.43952247       3.99088221      14.91875847      -0.26255598       0.08436367      -0.17468795       1.16923831       3.65568804      -0.47960182
I       39.23765980       7.88731220      12.35545452       0.02900253       0.13513232      -0.03477615      -2.90883900      -2.82963275       0.18423100
I        9.20918405      10.68987547      13.39424669      -0.20205574      -0.04259618      -0.38289244      -0.34770538      -1.01385578      -0.23201452
I        8.81417171       2.59020167      10.99227221       0.20235907      -0.04168674      -0.10710770      -0.04986272      -0.31898003      -1.46456477
I       17.30891809       1.31255358      11.48302997      -0.29337119      -0.05255362       0.18496272       2.36685959       0.36892752       2.33504723
I        0.90812600      12.01725836      13.58177072      -0.05168405       0.05836732       0.01185382       0.11133093      -1.70109069      -2.02223339
I       10.94220937       6.87596731      11.05014368       0.14405963      -0.02693713      -0.12162073       0.94915805      -0.23319058       1.40216729
I        7.08867811       6.06810091      13.60062581       0.18587769       0.13844839      -0.18746855      -2.79611987       1.96156455       1.30202168
I        2.90871389       3.83197710      10.68381787       0.06185010      -0.04210525      -0.11666762      -0.68207353      -3.51903674      -2.38927764
I       14.97980509       9.62914384      13.46778579      -0.15042257      -0.29634186      -0.01989026      -1.15602807      -2.91891464       2.71652817
I        5.17496374       9.58851116      11.47219339      -0.07623620       0.13526815       0.11536423      -1.23034350       0.52609442      -1.07868254
I       13.38950545       3.80032801      13.73268040      -0.05214476      -0.40611825      -0.08150416       1.56216268      -0.45194522       1.63606672
H        6.37131051       0.86152418      17.90142070      -0.89900007       0.87724249      -0.16801430       0.04900109       0.17084403      -0.20398313
H       11.63097731      12.76133030      16.30958742       0.32300379      -0.02751769      -0.46070990       0.09060131      -0.03528609      -0.08872967
H        1.35083149       6.69873247      17.87058279      -0.95580171      -0.60678996      -0.27763452       0.20186623      -0.08701098      -0.07027751
H       16.69238528       6.86481401      15.82866079       0.12939986      -0.05735609      -0.36671636       0.03199995      -0.19428680       0.01263150
H        4.69586529      -0.45213154      13.86334319       0.10730676      -0.73093164       0.29910843       0.06482777       0.06123913      -0.18091684
H       11.30407564      11.18431479      14.44942557       0.78621716       0.39747617       0.54593072       0.00747370       0.04795358       0.06458106
H        1.25360679       8.69113736      14.56740289      -0.51794356      -0.48089259      -0.40133015      -0.06479473      -0.00743767      -0.04996286
H       17.21339498       4.78932178      16.81655924       0.39279264      -0.44559924       0.46678770       0.03555654      -0.04917185       0.30134396
H        5.03731407       3.44854872      16.97976700      -1.25522249       0.63615283      -0.01909234       0.08818147       0.17848666       0.18354474
H       13.09235551      10.89229727      14.21716178       1.18186128      -0.74562834      -0.47610776      -0.14881278      -0.09111203       0.13118208
H        2.97040014       8.68374690      14.31189719       0.46337859       0.01275045       0.38966794       0.17674334       0.22224937       0.11783188
H       15.53913954       4.23064997      16.78551855      -1.03748625      -0.81031969       0.29742096       0.02511377      -0.00146079      -0.05511699
H        3.50487759       1.88687627      18.35439414       0.10611005       0.42325405      -0.43386535      -0.31068149       0.16179790       0.19216733
H       14.82737117      12.31611495      15.67873789      -1.24179555       0.47960939      -0.29304492      -0.00056089       0.15530294       0.07973908
H        2.82049505       9.16414344      18.70921233      -0.58288859       0.15097438       0.28119325      -0.09685465      -0.02326673       0.15168455
H       13.76124738       5.89870555      15.89137417       1.09570623       0.94916151      -0.55314000      -0.19013615       0.02016619      -0.11345253
H        4.22896348       0.23617317      18.53659104       0.13643720       0.73139019      -0.12312031      -0.06858574       0.09606331       0.08579324
H       13.82787206      13.41881362      16.78743009      -0.19218083       0.08150223       0.12808043      -0.06786329       0.00392476       0.02985603
H        1.04296757       8.92578647      18.81313275      -0.48584007       0.14042278       0.58337569      -0.06295346       0.09985041       0.10673291
H       17.01230451       4.55889646      11.28556451      -0.46624406      -0.11572412       0.34168038      -0.08090411      -0.11354600      -0.06376383
C        5.54353671       1.65493843      17.81155349       0.09867552      -0.16475097      -0.37958171      -0.20521433       0.27816196       0.27418191
C       12.58397555      12.27709365      15.67647843      -1.15818378       1.68226848       1.43891081       0.20868378      -0.17554142       0.16571787
C        2.17693929       7.35118451      18.02230813       1.67183580       1.04948497      -0.19863891       0.03996666       0.15814446      -0.36078678
C       15.88701465       6.10941210      15.93409926      -0.44417205      -0.96357467       0.71414773      -0.23030606      -0.29586362       0.53832462
N        5.78972882       2.86327181      17.26224445      -0.18326293      -0.92745289       0.84780612       0.37041662       0.15763080      -1.53512355
N       12.34529333      11.43433462      14.67727357      -1.62426775      -1.30157378      -0.93725698      -0.59883774      -0.05306106       0.57436041
N        2.07472898       8.22416206      14.12781608       1.42670177      -1.35363676      -1.15946193       0.28360251      -0.57779991      -0.92142208
N       16.23886372       4.87522092      16.47679815       0.49307462       2.38340028      -1.20188646       0.10270496       0.17936642      -1.02953761
N        4.32867261       1.26581138      18.21580918       0.80185143      -1.15937967       0.38639444      -0.01621388       0.39008889      -0.29486490
N       13.79536412      12.63560396      16.10715801       1.84833082      -0.58279210       0.31173823       0.57038394      -0.24499166       0.35949291
N        1.97860829       8.56952192      18.58292399       1.24426776      -0.96921678      -0.85869361      -0.08174049      -0.24899529       0.46930764
N       14.62753353       6.50081361      15.59260774      -0.42544843      -0.88652636       0.55903934       0.40985368      -0.30061311      -0.34107341
Pb       0.15742909       2.65081110      15.74058495      -0.47257586       0.17069620       0.14381651      -0.27649221       4.96941552      -2.04261977
Pb      17.99779608      10.60652613      18.56824688      -0.22446272      -0.05129022       0.03654183       0.71762180       0.66531886      -1.40790941
Pb       8.13240783       8.57526329      15.55579862      -0.46308330      -0.14431509       0.16262483      -0.55761071       0.78368458       3.05473586
Pb      10.34674427       5.04059979      18.36815759      -0.32512198      -0.22732767      -0.48143596      -2.04019404       1.50822765      -1.68176653
I       39.09120152       3.85424300      19.45840931       0.09115704      -0.06289064      -0.03955845      -2.25978260       1.82639388      -0.43782048
I       39.13589061       8.09575000      16.67983264      -0.34584719      -0.02279329       0.54754913       0.62500923       2.12460801      -0.34372936
I        9.31166902      10.24155049      18.06125684       0.15749412       0.42292993      -0.08790271       0.08796408       0.00553906       0.15278266
I        9.32854370       3.00898133      15.85677207      -0.12909365      -0.17445250       0.09656665      -1.63321168      -2.39740554      -1.43156669
I       17.11127865       1.02586032      16.34553947      -0.16096497       0.05324890      -0.13741371      -2.24620908      -3.18650535       0.64563202
I        1.01241293      11.99130046      18.02217613      -0.20784699       0.04849359       0.17025646      -2.07385317      -0.43481218      -1.86298040
I       10.79308035       6.76610584      15.50615125       0.40116345       0.16317929       0.07088324       0.60068264       1.18688562       1.99357913
I        7.07281040       6.67205143      17.96699087       0.23986020      -0.31214161       0.04559851      -1.42081680       1.09891720      -1.51758006
I        2.85643783       3.94309479      15.57919602       0.32771499       0.00788203      -0.03494601      -0.53379823       1.53041687      -0.37666390
I       15.09498972       9.30871867      18.57980985       0.07854185       0.13471467      -0.10548247      -2.45565124       2.11284922       0.30852224