768
Lattice="25.888783465013457 -0.26065579461610544 0.6964381020346223 0.2808865365786464 25.92206712803773 0.0706842229014887 -0.6430174188924329 -0.04221809821815645 25.838360985299012" Properties=species:S:1:pos:R:3:forces:R:3:momenta:R:3 energy=-3593.592560222868 stress="0.0 0.0 0.0 0.0 0.0 0.0 0.0 0.0 0.0" pbc="T T T"
H        9.05693112      14.05184676       2.85930528      -0.13074642       0.14701799       0.28325896      -0.04111939       0.48341975      -0.30653963
H        8.64799350       3.49918352       4.17751940      -0.04906831       0.61846948       1.20024519      -0.09273590      -0.19262874       0.16450455
H        8.78812979       4.99568940       7.97195160       0.30129334      -0.47185931      -0.12597865      -0.00660965       0.06051528       0.32595820
H        8.71224779      13.39391299       8.77145572       0.12036434       2.46266030      -0.85381540       0.21419978      -0.03273487      -0.04576162
H        7.22041384      12.79234307       1.78013649      -0.67921553       1.46562165      -2.10259560       0.29323709      -0.20708873      -0.31326246
H        7.20215749       3.26274181       2.48635297      -0.33823452       0.71150197      -0.34074828      -0.31613032      -0.26844189       0.08481861
H        0.88993645      13.15327283      10.01396945      -0.28324909      -2.01623820      -1.52258069      -0.37438603      -0.13830908      -0.04759542
H        9.68616026      11.97530119      10.61565945      -1.29605394      -0.28787109      -1.03908195       0.32457097       0.38772058      -0.41380866
H        2.33911242       4.99311586       1.37400801      -0.46403432       0.78380215       0.14640523      -0.26886170      -0.14293718      -0.10874202
H        0.48496263      10.40703384       2.46807384       0.74293385       0.35836036      -0.21800925       0.09373587      -0.08623825      -0.20272877
H        0.01657435      11.66131713       9.39301669      -0.20592831      -0.54930917       0.23950219       0.16193388      -0.46370681       0.31191705
H        8.29636980      10.80436827      10.65012763      -0.98282470       0.93727938      -1.32335774      -0.08843011      -0.03178938       0.02767019
H        1.45615191       3.96831141       3.86177228       1.00968725      -0.91188848      -0.28818232       0.06631255       0.07937869      -0.50451202
H        2.72584281      11.83676681       1.00828880      -0.28804641      -0.01624814       0.38742656       0.46738284       0.24593556       0.06317092
H        1.50402426      10.66629555       7.12991795      -0.12519501      -0.65409905      -0.32098038      -0.22758921       0.01067087       0.00340964
H        1.14653895       8.26758195       9.46971420      -0.94158279       0.93513430      -0.32621428       0.16792527       0.32422852       0.22925319
H       10.32108757      12.71867350       4.78751209       2.35277820       1.13874523       2.18084383       0.00434282       0.08693527      -0.00382577
H        3.16212762      13.42751311       2.09976150       0.01657169      -0.06432333      -0.24525407       0.22144584      -0.10534622      -0.18822942
H       10.36156183       4.75982980       9.83141226      -1.19175086       0.65729933      -0.47794948      -0.18448733       0.27561510       0.12107411
H        2.51124610       7.79737679       7.56074433       0.35905474       0.35727743      -0.45688570       0.11964157      -0.00339303       0.00059555
C        8.72856267      12.96004001       3.27093260       0.43089851      -1.17801934       0.08120459      -0.26131886       0.25100677       0.41916997
C        1.59682851      12.24015362       2.99386333       0.37076114       1.19875078       0.02111322      -1.12214818      -1.57933238      -0.74457658
C        1.73965133      12.31603872       8.34531045       0.71629829      -0.26088572       0.57077900      -0.15487588       0.18790260      -1.39101353
C        2.37775336       5.72276513       9.20021006      -2.97732755      -0.17524376       2.97326503      -0.44051260      -0.28639967      -0.33622487
N        1.51185266       5.72700604       1.48083319       1.41480150      -2.79238987       0.82738272      -0.62499263      -0.96752314       1.47229879
N        0.71666967      11.20440623       3.12320959      -0.58902292      -1.50419078      -0.94655276       0.22403183       0.18849194      -0.31952441
N        0.81219496      12.30787643       9.32076114       1.46864450       2.41323531      -0.75508528       0.06057275       1.20733433       0.55750507
N        8.57545962      11.75085696      10.18063781       1.33781556      -0.74052068       2.14254485       0.76504547       1.00655138      -1.05627622
N        0.80568492       4.75534909       3.76113202      -1.04168227       2.45701729      -1.67522210      -0.60891941       0.45759310       0.67232707
N        2.51556423      12.49471672       1.93557482       1.04186909       0.02007786      -0.86228130      -0.36530229      -0.29041681      -0.49179626
N        9.54463712       5.57487618       9.96379631       0.82104403      -0.87438535       1.78323021       0.76540503       0.68229349       0.41770109
N        1.88227907       7.35623111       8.63705539       1.88026826      -0.45434921      -1.18600576      -0.92246735      -1.23720218       0.56312737
Pb       4.46746604       2.45689932      12.56949571       0.11905529      -0.11124521      -0.06643588      -1.73934308      -6.38134323       1.74789526
Pb      23.71827968       2.09584989      13.15610476       0.61757686       0.20138203      -0.06468430       0.07293806      -5.75491520      -3.79660878
Pb       5.50003634       9.09802080       5.60361702      -0.17017252       0.19296008       0.06520947      -3.05609961      -7.76145269      -3.86413969
Pb       4.93828401       2.65090039       6.10424077      -0.06362838       0.16440035      -0.37445603     -10.86596235      -3.49677708      -0.43214364
I        8.12631044       2.47449918      12.51648731      -0.92115808      -0.18494826       0.08593193      -3.93188249      -0.99018729       3.58829816
I        1.36036863      15.06338613      12.20469026       0.58504581       0.07310691      -0.20482093      -0.19624780      -0.85454029       5.34697776
I        1.87082077       1.43907787       6.51066803      -0.20485448       0.56435355      -0.17163972       3.13059749       3.08114130       0.67287841
I        8.43832044       2.60444264       5.50180636      -0.38346052      -0.09344821       0.24828221      -2.42992599       2.32508738      -3.66040404
I        5.13212392      11.90524824      11.37739565       0.13167243       0.57897588       0.31543078      -1.12235843       2.86005441      -1.84029216
I        4.71163005       5.65114604      24.77644319      -0.18650286       0.64868644       0.33418654       2.53168694      -1.69435908       3.64142494
I        5.01265370       6.15053033       6.36508605      -0.24460056      -0.69213822      -0.11703330       3.40586052       2.80060009      -0.03699489
I        5.08329662      12.41554738       4.97067509       0.01236674      -0.20628789       0.22647603       0.25928685       0.20530578       1.01706323
I        4.58403830      15.60977121       2.53879500       0.01715690      -0.07608589      -0.32224182       1.49933706      -0.60371415      -3.64317889
I       24.78630180       2.14230347       3.71545726      -0.22422030      -0.22838567       0.60521587      -2.53463962      -0.12486739       3.25373870
I       23.42611040       1.76680694      10.36961874       0.04574156      -0.04347575      -0.42871827       0.87416335       1.77448379      -3.78348066
I        5.13839826       2.13735477       9.18215386       0.04990391       0.00011225       0.33095189      -1.22293815       2.75413031       2.27460659
H       -0.16143188       6.35454292       2.59297777      -1.92988913       2.83480018      -0.28573321       0.21738067       0.01073922       0.10245236
H        1.56583165      13.08118261       3.81666106      -0.12601173      -0.62595985       0.03873977       0.03881868      -0.25238942       0.07186519
H        2.53083875      13.09501499       8.39151741      -0.24512985       0.34712211       0.44818584      -0.35193199       0.17239757       0.08392961
H        3.36981891       4.95921029       8.45681290       0.40645630      -0.41484915      -0.15358097       0.15772077       0.63094210      -0.14829852
H        1.64420169       6.59097566       0.92053624      -0.44793292       1.09762056      -1.21293318      -0.10394725      -0.48925445       0.09059199
H        0.18298379      11.13691860       4.02481426      -1.27496682       0.85463043       1.63656692       0.39569467       0.40869744       0.05775302
H        6.88550579       6.42104364       7.89522060       0.73866921       0.69137881       1.83771821       0.17299978      -0.34050135       0.04993969
H        1.98721687       3.51872159      10.94538946       0.23209616       0.68417183      -0.65771766       0.23804759      -0.09488218      -0.23736706
H        7.42809140      11.18351934       2.77863532      -0.97928860      -0.87048947      -0.19727394       0.14707345      -0.12652823      -0.09480161
H        7.29738684       5.61642298       2.07801239      -0.87037777       0.94040344      -0.02878290      -0.06859813       0.00824066       0.28485830
H        7.17479327       7.32031058       9.52863124       0.25578833      -1.29193593      -0.25218177       0.25199180       0.03211334       0.10653731
H        0.46329137       5.41841245      11.32922221       0.78086050      -0.59905489      -0.14375985      -0.01601173       0.35082318       0.34549293
H        9.33064883      11.23476751       4.73704324       0.82837674       1.64732915      -0.33371678       0.32365921       0.06407201       0.11735562
H        8.73359950       7.48534915       3.45002967       0.10520056       0.08288968       0.28674341       0.00602421      -0.05358891       0.25905899
H        9.23332238       5.94017121      11.30309907       0.13058625       0.06745972      -1.10312480      -0.11510572      -0.14957088      -0.01891224
H        5.74492871      11.63556655       8.89431402      -0.02583405       1.07712276      -0.58625334       0.44438300      -0.15690446       0.34472110
H       -0.01474202       4.75295847       4.51797842       0.64666403      -0.01792366      -0.78613060      -0.01565909      -0.16167170      -0.08898171
H        9.94696904       6.60901398       4.72037918       0.59141368      -0.49318026       1.83024597      -0.21359363       0.39014489       0.11716921
H        3.05197989      11.61580763       6.98823638       1.34922593       0.34465228      -2.31234553      -0.12802557      -0.21011058       0.12012340
H        6.15638827      13.03710565       7.61496958       2.01249980      -0.18481919       2.61112830      -0.21296513      -0.04458657      -0.27451680
C        0.64179527       5.64676827       2.56274412       1.33238206      -3.53505900       3.21308513      -0.66518660       0.07547778      -1.33828408
C        8.37582010       4.67650442       3.78754118       0.11672029       1.90675439      -1.61522113       0.13397393      -0.34427187       1.14645377
C        8.57637130       5.66070110       8.96881819      -1.90688906       1.32084498      -1.58747993      -0.70283266      -1.10154466      -0.50472989
C        7.89052927      12.61983147       9.22019050       0.42519147      -1.87594007      -0.06328926      -1.49409575       2.35322166       0.21114017
N        7.59890521      12.30373104       2.60218557       1.44739221      -0.16677147       1.87931873       1.71183874      -1.08519688      -0.52189573
N        7.53102426       4.58061839       2.69702157       0.48435907      -2.74796599      -0.26611888       1.10139927      -0.93556697       0.90050149
N        7.36681902       6.44493241       8.93002626       0.90377047      -0.49351322      -0.12288276      -0.54459491      -0.02522235       0.86605156
N        1.62958628       4.91206290      10.65846963       0.34795711      -0.84068826      -0.10638373      -0.10880023      -0.00500368      -0.05881786
N        9.58566952      12.28625413       4.28479801      -3.53305230      -2.46053922      -2.03746593      -0.44902087       2.22207965      -1.30865300
N        8.99847920       6.33306565       4.10604624      -0.16819128      -0.91431930      -1.36376802      -1.24216123       0.57128278       0.51264479
N        2.03609742      11.50745576       7.31497601      -2.54439384       0.41572700       3.76174070      -0.23440582       1.07920498       0.41178346
N        6.45881754      12.52964119       8.62687356      -1.57413941      -1.44831879      -1.11044580      -0.81320225       0.12692202       0.25931135
Pb      23.92198170       8.53394303      12.77558247       0.32723169       0.02696185       0.01969317       2.59783061      -4.76420344      -1.60432586
Pb       4.76596411       9.04795806      12.41927850      -0.21705572       0.03415391       0.42324455      -0.92913996       6.67699328       3.12780538
Pb      24.23930729       1.78581530       6.76292786       0.01803432       0.73947736      -0.29584289      -6.69247232       1.16550009       2.38802982
Pb      24.91686891       8.59856610       6.37246327      -0.34278301      -0.38062709      -0.09752392      -3.57572888       2.82613899      -9.06414437
I        2.12211284       9.53313185      13.02776046       0.23005586      -0.43695947       0.08485021      -2.94460935       2.64894710      -1.49002552
I        8.58224374       8.40823164      12.16103992       0.39833031       0.10371466      -0.05831755       1.80495971      -6.48021147       1.08258426
I        8.72532436       9.38428083       6.26567264      -0.53138616       0.01545187      -0.02748141       4.23239133      -1.60903889      -2.64927174
I        1.94446845       8.89269982       4.86829626       0.46336555       0.05708317       0.06119667       2.46066289       4.91006395       5.22293222
I       24.36154626       5.06742814      13.40026574       0.00032915       0.03456060       0.06681269       2.13870308       3.37334173       2.84484567
I       23.61359510      11.58891613      25.69738560      -0.00439645       0.61140175       0.33265817       4.48745953       0.68794368      -1.06652268
I       24.60260993      11.67825250       6.68386595      -0.09482690       0.01063309       0.02911276       2.53396494      -4.72724928       2.68346019
I       24.10559258       5.15856067       6.83051644       0.25279046      -0.26560850       0.18287005       0.19066686       2.50728991       2.92496846
I       11.86136342       8.65582599       2.92002906      -0.19757329       0.09262122       0.09962416      -0.59191982       0.06290321      -1.53465189
I        6.54836768       8.20970070       2.54015141      -0.07516806       0.42822719       0.03048976       0.67065897       1.06949509       1.36759342
I        5.19972057       9.32305138       8.98142077      -0.10719658      -0.02561953      -0.23884107       0.51989849      -1.23802117      -0.03349469
I       25.62618346       7.76927341       9.72751732       0.11876863       0.31051407      -0.05397894      -0.35905326      -1.04805425       2.07160890
H        9.50695379      13.60399974      16.49053796       0.38120537       0.49033480      -0.55377788      -0.22394328       0.14562901      -0.13485447
H        8.95042512       3.63586140      16.20643741       0.17695105      -0.39888916      -1.04924159      -0.09591277       0.15157056       0.34333580
H        8.42240550       4.42675071      21.33659356       0.11812080      -1.22383554      -0.31250192       0.02824025      -0.50600728       0.25664467
H        9.02655362      13.30540237      21.73747729      -1.14445430      -0.29624909       0.01849585      -0.14766440      -0.13152242       0.43982311
H        8.62231291      14.06041305      14.03277571      -0.72051567       1.40910733      -1.77513033      -0.06662642       0.36535069       0.02859310
H        7.32620774       3.77913691      14.34782888       0.07201165       1.49304362       1.33019577      -0.09868949      -0.34244384      -0.15946960
H       -0.01040912      12.00643797      23.73365222      -0.66675216      -2.04844463      -1.11445496      -0.34300277       0.53657896      -0.13349607
H        9.58487480      11.74708339      23.69843197      -1.76920772      -1.93441836      -0.49202880       0.25466431       0.01109393      -0.35213157
H        2.42913128       4.82302788      14.62432673      -2.29053058       2.63034483       1.00629395      -0.15569232       0.08013726      -0.18251444
H        1.29168587      10.10952719      15.23740681       1.45809536       3.50171888       1.52074978       0.54081856      -0.11908860       0.16685302
H       -0.21312287      10.54003069      22.12266028       0.90285412       1.49669609      -0.42324525      -0.10840001       0.04657458      -0.08186672
H        7.92076186      10.42077173      23.38917408       0.60218894       0.86896457       0.04010454      -0.09421378       0.19023950      -0.13727028
H        1.12629772       4.72447426      17.08378865      -1.15719923       2.33290467      -0.57120815       0.02055140       0.01510531       0.11070556
H        3.02396665      12.00845123      13.72781320      -0.22681861      -1.09090479      -0.72831008       0.16079564       0.08973028      -0.27067602
H        1.45917939      11.42187273      19.55810605       0.90186147       0.66936527       0.26722949      -0.46038787      -0.55466390       0.03333638
H        1.45779598       7.23258139      20.47571483      -0.24982503       0.15921258       0.35884506      -0.14358594      -0.12250915       0.20911428
H        9.06956377      11.27086095      17.42596706       0.52081944       0.12912984       0.91039197       0.19892996      -0.02359520       0.16581158
H        2.89956986      14.05188605      14.08666203       1.48755973       1.31697901      -0.31204846      -0.10280669      -0.07178499       0.20356967
H        9.34849254       4.99421156      23.49760143      -1.33686764       1.14617091      -0.67542045       0.16504223       0.09907610       0.36528874
H        2.85239807       6.27500910      20.35963030       1.59044800      -0.90054726      -0.82839564       0.16086642       0.16314308       0.14487620
C        8.78893627      12.78680598      15.80808403      -0.34815784      -1.82386076       1.88975629       0.75617331      -0.90706685       1.35058133
C        1.56234206      12.66980079      15.26548101       0.41603936       1.53687605       1.05796160      -0.30807069       0.26227097      -0.65025876
C        1.57723660      12.42922233      22.10245490      -1.46693057      -1.65182375       0.42313540       0.42884004       0.09037484      -0.62922796
C        1.15542746       5.37230948      21.50293837       1.48830028      -1.34596505      -1.52917167      -0.78687730      -0.03936449       0.42949383
N        2.02879422       5.91763384      14.94826403      -0.38823176       0.37157020      -1.30558272       0.93817487       0.14570501      -0.06564350
N        1.05294449      11.24889798      15.73860448      -1.42570692      -5.53081909      -2.64867829       0.90451880       1.31174955       0.60486112
N        0.24480320      11.60771772      22.61639589       0.96984898       2.05440740       1.23745491       1.92551669       0.24271657      -0.15074267
N        8.56190575      11.43753032      23.08769412       2.32679592      -0.09163656       2.25505639      -0.58323157       0.25947927      -0.69665811
N        0.79203280       5.78709250      16.99361261      -0.68941866      -2.08254103       1.27206236       1.30512738       1.74607710       0.60592270
N        2.57272398      12.91948393      14.25839328      -1.92276817      -0.34266419       1.15020533       0.30130047      -1.40866607       0.11524597
N        8.57903790       5.60183014      23.05418787       3.33795042      -1.31330798       3.26360126      -0.73877380      -0.42882831      -0.08679560
N        1.96770245       6.39939638      20.83447996      -1.52449621       1.36308283       0.33950749       1.66232698      -1.50980540      -0.06302992
Pb       4.33307560       2.45059401      25.36758746       0.14797780       0.08700989      -0.20454193       0.00289077      -0.96287228      -4.30273385
Pb      23.73582777       2.29481109      25.84611242       0.23727270       0.06432129       1.04173792       3.04716376       0.05551354       3.28655553
Pb       4.95381882       9.49420150      18.74602609       0.56864812      -0.55836420      -0.47487894      -1.38559948      -3.33890861       0.98000024
Pb       4.42423588       2.85000433      18.86375929      -0.05348302      -0.08452357       0.51004581      -1.10800353       1.33306707       1.58839770
I        7.71474194       2.90106405      25.53490070      -0.12852855      -0.48503894       0.22669848       0.21342536       0.88232466       1.77034899
I        1.04673175      14.95764826      24.74199650       0.73535785      -0.16467677       0.03287131       4.63142698       5.66506862       3.57259753
I        1.14854462       2.60030708      19.29303653      -0.26996105       0.11074166      -0.09891380       1.04482930       1.39109493       1.04166813
I        7.63858193       2.37385749      18.70767058      -0.28674865       0.03831805       0.01713428      -0.63687448      -0.26644651      -4.46530664
I        4.77255609      12.35054216      25.11980709       0.00286398      -0.07287654      -0.00095523      -2.33866091      -6.78974658      -5.71829598
I        4.80740480       5.72607527      12.08667215      -0.14458160      -0.78479160       0.17149075       1.74481300       1.12979430      -1.55044762
I        4.69510632       6.16093904      18.27432755       0.10648469      -0.25976999       0.24211157      -1.42911884      -2.64864800       0.99567561
I        5.02239532      12.38727332      17.95726720      -0.09687086       0.45585987       0.29647395       2.83401674       1.28527745      -2.42257363
I        4.44059077      15.24951771      15.45254157       0.08175824       0.14029383      -0.26140590       0.31058610       3.35159293      -3.29249294
I       23.98607856       1.17746947      16.62842842      -0.03948957       0.57894784       0.49859694       0.87124197       2.13654512       1.81117306
I       23.09961130       1.12046552      23.51929409       0.25239372       0.42232604      -1.24277749       1.51839548       0.24765327      -4.20183314
I        4.56770650       2.50443825      22.31946958      -0.03619908       0.05847399      -0.64602919       3.21060982      -0.43941199       0.78398841
H        0.94181598       7.54596153      15.80292572      -1.17684095       0.82513186      -0.06395847       0.07407594       0.18194882      -0.09447855
H        1.10585156      13.80604866      15.78381987       0.13557062      -0.93315089      -0.31831414      -0.09944388      -0.39970223      -0.19697803
H        2.19298158      13.36882472      22.95928814      -0.26340628      -0.43697204      -0.05811074      -0.08481841      -0.10960325       0.29991574
H        1.71172136       4.49618260      21.65254138       0.98072340      -1.31051914       0.17893713       0.09560112       0.20844912      -0.32440966
H        2.20498731       6.60414357      14.12707548      -0.53292001      -1.42384174       1.80633721      -0.07500751      -0.02852901       0.15174116
H        0.43947919      10.85744011      16.74375378      -0.31918288       1.56957278       0.51641177      -0.03082304       0.03347534       0.03250568
H        6.48092032       5.84675670      20.71827415      -0.03788711      -0.27102942       0.06094384      -0.10781751      -0.09078962      -0.09080194
H       -0.73940055       4.62243552      22.57160045       0.10106935      -1.80262932       1.68891696       0.00463573      -0.37374986       0.10825678
H        7.75390687      12.30729152      13.96004364      -1.50625007      -1.10434192      -0.58694812      -0.10849639      -0.27056532      -0.41005382
H        6.88112476       5.39518516      15.03439311      -1.46508372       2.47039094      -0.82687692       0.17719190       0.00861384       0.05387833
H        6.60451039       6.63261479      22.37863367      -0.13040128      -0.29609475      -0.45594978       0.24751514      -0.01315709      -0.23728141
H       -0.79710587       6.19758563      21.75619392       0.91421965      -2.03973426       0.54499180      -0.22883546       0.04705603       0.11808689
H        7.76346050      10.65077803      16.19123102       0.60345746       1.29572461      -0.83550404      -0.30108847      -0.11441017      -0.12843198
H        8.30705953       6.54350153      16.70371046      -0.61348970       1.33113381       0.01282012       0.25085340      -0.19386623       0.27800424
H        8.21417418       6.36828118      23.71848994      -0.08140066      -0.50214539      -0.48364489      -0.03989648      -0.20420216       0.14344871
H        6.09497604      11.12781325      21.06286689       0.24548564      -0.04859214       0.99912241      -0.01711843       0.19732300       0.03569757
H        0.06966833       6.10093235      17.73460214       1.36186217      -0.25100357      -1.23516832      -0.28164915      -0.14201628      -0.01800472
H        9.44810078       5.59303248      17.43903809       1.97933804      -1.13938602       1.67308143      -0.18734206      -0.13081499      -0.14075646
H        3.21265066      12.80914664      20.42019159       0.72774491      -0.23755040      -1.54647155      -0.22043237       0.20886256       0.33761152
H        6.48050844      13.01280020      20.45770908      -0.09835169       0.37937896      -1.19934936       0.01384190      -0.06998152      -0.24046314
C        1.12627954       6.44043308      15.89175888       4.73974377      -2.67227458      -0.73928897       0.42404927      -0.01242844       1.18607378
C        8.42384580       4.61868502      15.90120277       1.50595133       0.02358998       2.43668938       0.10024252      -0.29944694      -0.26992912
C        7.96592010       5.16966625      22.01093345      -0.10057751       1.48034553      -0.25226033      -0.11044271      -0.47346084       0.35295804
C        8.11516566      12.32200282      21.99932711       0.98083264       1.90794687      -0.95509720      -0.86313894      -1.26750033       1.20447692
N        8.22649434      13.11797050      14.51884611       1.18967368      -0.26664845       1.09881766       1.33984632      -0.61628441       0.29819058
N        7.52202609       4.68779196      14.97334279      -0.17387801      -3.41199479      -2.14544713       0.69707160       0.88422987       1.62397211
N        6.90281634       5.84919788      21.71683154      -1.84458469       1.05896731      -1.16822611      -1.26413918       1.44182838      -0.17934317
N       -0.28640050       5.24050408      21.91737271      -2.96402971       5.98211190      -0.68608139       0.21378230       0.38768467       0.49982638
N        8.49878920      11.47543436      16.50507981      -0.58686027      -0.66027556      -0.05953160       0.82849566       1.56838769       0.98974227
N        8.81432890       5.68087811      16.69350441      -1.83538432       0.37508752      -1.46504362      -0.07985356      -0.23669214       0.79880337
N        2.15878918      12.15412144      20.63238771      -0.76978235       0.44593484       1.07749580       0.92638705       1.65916949      -1.14738207
N        6.84581187      12.17107588      21.18451205      -1.07580359      -0.62202768      -0.69247768       0.26871975       0.22496818       0.28205236
Pb      23.81402496       8.56963140      25.56365237      -0.37597460       0.23900567       0.22293819       4.37690462       0.60472158       0.49583437
Pb       4.50035450       9.01418720      25.27689716       0.16902471      -0.66772385       0.15743365      -0.18118771      -8.44696925       1.70283639
Pb      23.79063975       2.08335292      19.34742497      -0.10185726      -0.00298631       0.32162827       3.61945580      -1.65084250      -3.03166431
Pb      24.10983646       8.68082561      19.33571884      -0.22448816      -0.02629251      -0.11340857      -4.76001957      -6.01806974       5.26462488
I        2.29340017       9.34523874      -0.20759183       0.01751022      -0.10657781       0.16601174       2.17681573       5.16022713      -0.20649737
I        8.31965294       8.76010883      25.36942930      -0.27968197      -0.20833935      -0.24375037      -1.51421406       0.84179812      -0.93925829
I        8.30889713       8.64788347      19.51075205      -0.51328096       0.06749047      -0.26243359       1.80357421       2.39046935       2.67418626
I        1.46285897       9.21437100      18.78331824       0.33098135      -0.06361492      -0.05271186       4.65705810      -2.58945027      -0.83949809
I       24.36196792       5.49198930      26.28041658      -0.26552313      -0.75467053      -0.08904042      -1.25858679      -1.10325312       1.96107394
I       24.70396129      11.63846151      13.01876632      -0.22459138       0.11321036       0.04087138       1.60543054      -1.22369326       2.56490920
I       24.56520951      11.76697280      19.56208977       0.05441133       0.27314865      -0.07610767      -0.62500379       0.70808294      -4.14432586
I       23.49107315       5.53312314      20.17778946       0.34272925      -0.73991472      -0.10944388       2.94363553      -2.59149782      -3.72365369
I       11.50429791       8.75004508      16.15484467      -0.15724547      -0.14671666      -0.65920892       0.55699939      -2.41808798      -2.89152732
I        6.50063550       9.36037350      15.41327022      -0.07543423      -0.30561087       0.24285891       2.75482171      -2.08751035      -0.67421885