768
Lattice="40.227587415121015 -0.7682833808457515 1.3263590934115383 0.394859312395313 23.52400323722727 0.25591382290307674 -0.5366011814355014 -0.10491616676151522 18.726843227480614" Properties=species:S:1:pos:R:3:forces:R:3:momenta:R:3 energy=-3646.5891051538083 stress="0.0 0.0 0.0 0.0 0.0 0.0 0.0 0.0 0.0" pbc="T T T"
H        6.87079718       0.92688669       4.40907627       0.73790879      -0.26822044       0.02522288      -0.03707491       0.11922361       0.12572225
H       11.61611190      12.94600326       2.17733563      -0.40085250      -0.01506201      -0.04968617       0.02958062       0.02843133      -0.04329754
H        1.89232740       6.84042884       3.65137788      -1.46254596      -0.66103510       0.02458059      -0.13920407      -0.03979585      -0.25381670
H       16.76140368       6.96509665       2.42831525      -0.27412328      -0.57827869       0.01129953      -0.07315825      -0.09517467       0.01695489
H        7.21950914       2.88453624       7.32699822       0.55880792       0.03615130      -0.02603458      -0.04495576       0.02612575      -0.00991596
H       11.61298810      11.36278316       0.35533074       0.58930399       0.02011383       0.26499472      -0.01042616       0.04333412      -0.07742051
H        3.27566581       5.86491933       7.79553372       0.06631424       0.40671281       0.27518764       0.11609340      -0.08187840       0.05937593
H       14.83722985       7.45502416       1.27747981       0.23907221       0.45899090      -0.17479924      -0.14694224      -0.19291726      -0.04182721
H        3.97902472       1.54827273       4.58373269      -0.25550391       0.35882619      -0.06257887      -0.04023485      -0.00305444       0.06743325
H       13.39865060      11.03635565       0.44977057      -0.17553858       0.14299803       0.10453698       0.06288605       0.03580953      -0.09125162
H        4.44140216       7.06909340       8.39505402      -0.01929852       0.12658187       0.15851791       0.04098499       0.04638297      -0.24403552
H       14.02504081       5.94183109       1.56586646       0.07778886      -0.21857167       0.13932317      -0.03652947      -0.12505462       0.15145422
H        5.24810835       3.17783654       3.25677872      -0.36432156       0.19212322      -0.17038711       0.10091969       0.03027935      -0.05420585
H       14.52561091      12.37947461       2.51193936       0.86387768      -0.79526862      -0.24105251       0.03602649       0.18194412      -0.11279869
H        4.74112138       7.59796029       3.70246250       0.67328053       0.08444193      -0.21996493       0.07320507      -0.06281713      -0.17926397
H       15.25714507       4.33128117       2.99009122       0.36483468      -0.09274649       0.26062418      -0.05115600      -0.14257391      -0.02886532
H        6.97168427       2.88101824       3.13289362       0.12332136       0.15513240      -0.19673798      -0.12604692      -0.17597768      -0.17673392
H       13.46320423      13.51351286       3.38908735      -0.02604198      -0.42747697      -0.32345075       0.08696785      -0.07055952      -0.20218249
H        3.91654116       6.16928892       3.01845349       0.32290364      -0.58161712      -0.61381176      -0.10296513      -0.03770480       0.18415641
H       14.74320066       7.76125732       5.63980704      -0.02744696      -0.64613642       0.24712711       0.00510344      -0.00673740       0.07509615
C        5.98652889       1.50332606       4.22266455      -0.34087090       1.33850029      -0.81793997       0.65345712      -0.02779950       0.11731830
C       12.53606374      12.39936121       1.90209919       1.10216992      -0.21142961      -0.20551501      -0.03628502      -0.05843053      -0.74527357
C        2.69459650       7.47865362       3.92253402       2.47460687      -0.67950778      -1.32355869       1.03648070       0.28817045       0.17458544
C       15.93978057       6.16441276       2.35247993       0.92812321       0.34326736       0.61317794       0.16004856       0.18379283      -0.82110885
N        4.86439892       1.06447069       4.69667410      -0.85657167      -0.15762427       0.55744516      -0.05767913       0.12295055       0.52244475
N       12.54007840      11.53363875       0.81455983      -0.38786242       0.40246268       0.38184506      -0.73968937      -0.38113344       0.17558674
N        3.45666635       6.75065696       8.33111639      -0.95188882      -0.26264648      -0.12533390      -0.64132760       0.33950445      -0.14216297
N       14.86678616       6.53196994       1.70905558      -0.85070054      -0.14744673      -0.35113689       0.02703178      -0.44672417      -0.49710217
N        6.05904261       2.62177155       3.50587200       0.67030199      -0.94783135       0.53748371      -0.07682960       0.34134768      -0.20817665
N       13.58987696      12.74768119       2.63929733      -1.48612045       0.71844930       0.15786734       0.82892523      -0.81422079       0.50544679
N        3.89889814       7.07041183       3.47698447      -1.75393929       0.80540680       1.28810523      -0.60842994       0.63649004       0.63248106
N       16.07540565       4.99952342       2.97424584      -0.85109467       0.50826340      -0.97970553       0.00874621       0.42530724      -0.19008324
Pb       0.56984866       2.92400823       1.63960212       0.17478005       0.14095040       0.14298618      -0.74061153      -3.61571721      -2.48984458
Pb      18.09632317      10.66813506       4.89286287       0.17562719      -0.03505261      -0.01580844       1.41586121       2.41826644       0.46116160
Pb       8.26348227       8.62937842       1.80650009      -0.14692101      -0.17595537      -0.08767420      -2.16436834      -0.18673301       1.36003312
Pb      10.35675688       4.82226445       4.12979137       0.18619519      -0.01716208       0.01126223       1.90698798       0.41291494      -1.99792526
I       39.76750619       4.17052425       5.30931078       0.01732255      -0.07115650      -0.13714908      -2.51075048      -0.12211681       0.95051972
I       39.60229075       8.47139907       2.88150493      -0.18407074      -0.15719554       0.33557971       2.11457933      -0.80377919       1.82709650
I        9.14221880      10.61503837       4.06281680       0.08181820       0.22289643      -0.00451931       0.66331441      -1.81671254      -0.71557841
I        9.30148071       2.82175848       1.86188729       0.01364572      -0.03530395      -0.11628025      -0.25732805       0.27201187      -0.94000467
I       17.14406432       1.40710941       2.57187055       0.08928954      -0.31505642      -0.10630764       0.12320621       0.63837644       2.25433697
I        1.36243925      12.64315819       4.06335269      -0.01747144       0.04394031       0.11256324       4.14438856       2.45923002      -0.40875403
I       11.21722415       6.90342018       1.89601556       0.01310950       0.18732144      -0.17952033       0.85500774       0.29168881      -0.58802880
I        7.54885135       6.45167347       4.29725053      -0.19725502       0.14884081      -0.05468203      -0.43054725      -0.38456563      -0.36036922
I        3.45424877       4.31078085       1.39862996      -0.21823950      -0.32906342      -0.00201084       3.05239978       0.42773203       0.33854457
I       15.15292721       9.60985918       4.46211882      -0.04399118       0.18013147      -0.10370610      -1.47303962      -0.04677521      -0.22483941
I        5.40483634       9.97843078       1.83984170       0.05477781      -0.05027125       0.02287544      -0.97175359      -1.30219081       0.68541890
I       13.23311167       3.60039942       4.47211763       0.01122307      -0.04667311      -0.02295621       0.64763895       1.98747817      -1.41266927
H        6.80313558       0.90804124       8.40030786      -0.61082981      -0.15733552       0.14888358       0.17059205      -0.01043305       0.05287593
H       11.50352718      12.94816167       6.97952392       0.86151675      -0.49150047      -0.34594227       0.02603489       0.06468555      -0.05227538
H        1.35021599       7.04833306       8.59508743       0.12073399      -0.08438431      -0.30867248      -0.12445053      -0.10645081       0.00582531
H       16.77058384       7.56910031       6.64170170      -0.20035555      -0.66747462       0.14923573       0.07255282       0.05472189      -0.05084783
H        4.83042737       0.27189446       5.34238677       0.29549012      -0.78496172       0.06706145       0.04605230       0.17186836      -0.04763798
H       11.35995459      11.30865312       5.09425245      -0.46214556      -0.15790785      -0.08077383      -0.01359381       0.04737433      -0.13053163
H        1.53274268       8.73538304       5.01641898       0.86971231       0.00180297      -0.41151619       0.11131893       0.15499905       0.00630971
H       17.38178676       5.51578802       7.89310980      -0.06101802       0.00746679       0.15338757      -0.04114894      -0.21207055      -0.04215358
H        5.54724501       3.44328998       7.40152657       0.23796382      -0.29137882       0.15251155      -0.01629948      -0.03488574       0.13482595
H       13.02283968      10.81069980       5.39493790       0.38744359      -0.52209061      -0.41723724       0.02130524      -0.02038159       0.02011833
H        3.26250662       9.12551332       4.94247361       0.31900623       0.33195899       0.13365460      -0.00209254       0.09743707      -0.02030721
H       15.69732114       4.89608919       7.80840077      -0.31092139      -0.49930322      -0.00751025       0.11735692       0.08795504      -0.00806303
H        3.92037779       1.76179352       8.78519210      -0.90195699       0.67069639      -0.31350115      -0.07056196       0.09743765       0.10157970
H       14.22757848      11.59066783       7.40361946       0.33596320       0.34003532       0.02223293       0.08967785      -0.07454170       0.00142394
H        3.29947477       8.89899632       9.95247138       0.81279051       0.41156389      -0.20454356       0.03624983      -0.15100527      -0.09649053
H       14.05488121       6.13746322       6.00416765       0.42123904      -0.27971942       0.39483621       0.05504204      -0.09546207      -0.08759332
H        4.79705402       0.25164978       9.13999856      -0.58999586       0.14284739       0.07943455       0.05460497       0.04400087       0.14111625
H       13.60299128      13.18606306       8.11912466       0.14978863      -0.98674530      -0.35354859       0.10423963       0.09233474       0.10921971
H        1.51414018       9.01984629       9.77200384       0.49425168      -0.45244667      -0.26838289       0.08015636      -0.11108441      -0.18740599
H       16.94182229       4.78227508       3.42864992       0.58062207      -0.24134359       0.50777257      -0.01382367      -0.05941626       0.11627757
C        5.93209713       1.58726535       8.27718342       0.84448568       0.44382298      -0.53661294       0.44891798      -0.07674780      -0.28453016
C       12.37083541      12.25491393       6.69746075      -0.47691703       0.64234768       0.03149252       0.06830356      -0.09605844      -0.31837944
C        2.37663753       7.44958839       8.77208048       0.65266244      -0.59621233      -0.30621732       0.12206161       0.02764870       0.44838017
C       16.04513810       6.65016970       6.75550783      -0.46603851       0.63179110      -0.38372031      -0.12261458       0.19115581       0.49386793
N        6.27510579       2.74995268       7.69165601      -1.55531181       0.22132219       0.14157833      -0.12879928      -0.26594523       0.38270317
N       12.22622100      11.38859307       5.63601220       0.10786486       0.71927749       0.90951376       0.35035819       0.12087827      -0.33346443
N        2.48095705       8.58610461       4.57013608      -1.45065307       0.86195633       1.36526767      -0.24027720       0.33157989       0.79467757
N       16.41219737       5.57678321       7.50091333       0.31942868       0.62752113      -0.27080881      -0.02727015      -0.81855127      -0.87237647
N        4.73614707       1.18056406       8.68219206       1.87205380      -1.01548131       0.37902150       0.61949273      -0.08027758       0.05404626
N       13.50774604      12.36576981       7.42968701      -0.91134262       0.35858794       0.24607879       0.14153327      -0.12447151       0.17792111
N        2.42640660       8.55826373       9.46857666      -1.20493781       0.54210353       0.77570324       0.59087353      -0.25578336      -0.31788400
N       14.85507813       6.81145148       6.11532650       0.36615056       0.45169742      -0.10116059      -0.22526728      -0.15340736      -0.00209351
Pb       0.24021375       2.72260738       6.25401409      -0.25470330       0.28993685       0.36058589       1.68087836      -1.17822146       2.67356727
Pb      17.99165238      10.71821311       9.67242350       0.27771012       0.15521968       0.12544167       1.20762728      -1.25030042      -2.01416466
Pb       8.49187443       8.70154139       6.54437150      -0.39644813      -0.13765156       0.28832146      -0.59506252       0.20161534       3.41399786
Pb      10.44112536       4.84908611       8.70746650       0.07247422      -0.10989057       0.22387214       1.01163376       0.25633943      -0.26290429
I       39.40563052       4.09774796       9.96992948       0.06969848      -0.07486524      -0.07110782      -0.10724555      -1.17451071       0.80681045
I       39.52331685       8.49833714       7.86065705       0.05669253      -0.25996332      -0.10654986       0.64612810      -0.55384617      -1.11134265
I        9.35762567      10.75678966       9.02367141      -0.00545066      -0.16949006      -0.14020307       1.81231202       0.72933490      -3.17665418
I        9.49819128       2.73025784       6.43612587       0.03449661       0.05957183       0.15328379       3.39245796       2.48234591      -0.86088095
I       17.41469095       1.24838594       7.20317111      -0.08875599      -0.08708514      -0.14182967      -0.63447396       1.57339722       1.11129292
I        1.11016031      12.45064248       8.93494520      -0.02155599       0.19519765       0.12741511      -0.52903652       0.52009602      -1.41067115
I       11.28063399       7.04809072       6.43634751       0.04844048       0.02584645       0.03925493       0.48052302       0.61918596       0.82303104
I        7.42025229       6.38739254       8.80528206       0.10329457       0.13821154      -0.06123054      -0.93532088      -0.16047767      -1.74291553
I        3.11847533       3.87695830       6.13322583       0.19963414       0.12544238       0.02472393       1.52698245      -0.98454849      -0.56408627
I       15.17120480       9.75140524       9.30719328      -0.15775989      -0.25225516      -0.04199233       0.59677770      -1.05673915       2.33869255
I        5.45287487       9.73762086       6.86633605      -0.06138577      -0.08180316      -0.15702327       0.29171825       0.06376282       2.77419446
I       13.43643637       3.84005233       8.90862389      -0.06864503      -0.05134524       0.05716875      -0.42377142       0.44740332      -0.84254402
H        6.96053744       0.99144698      13.46928960      -0.28040312      -0.07791891       0.00486059       0.11852037       0.12724183       0.17021266
H       11.41764999      12.77956393      11.83128916       0.79670694      -0.55674814      -0.22637669       0.09220432      -0.00643704      -0.00173603
H        1.15572204       7.17976669      13.16236731      -0.71365360      -0.24819652      -0.04526141       0.01553258       0.12362241       0.06085032
H       16.88362321       6.82842570      11.76378979      -0.21475310      -0.00036362       0.17919879       0.18828542      -0.11341646       0.04541740
H        6.85109637       2.92125982      17.08378448       0.64393984      -0.23705002      -0.36714697       0.15246203      -0.08689263      -0.03290195
H       11.47238575      10.82289900      10.58413198       0.01875708      -0.05411428       0.08211101       0.00239017       0.07765679      -0.06940799
H        3.28984129       6.21883520      16.70385610      -0.18575338       0.23906718       0.45450301       0.01840485      -0.18505537       0.12470980
H       14.89748616       7.51532949      10.62185770       0.29152335      -0.43101487       0.20786961       0.15317090      -0.14891485      -0.01882831
H        3.85262840       1.38852799      13.06584130       0.67208453      -0.24232561       0.26001185       0.25482138       0.21588893      -0.13628051
H       13.10253330      10.34017380      10.97493876      -0.11901089       0.64131209       0.44908565      -0.09836225      -0.01998064      -0.11210175
H        4.06858624       7.66258767      17.30795926       0.27037496       0.27855870       0.16671246       0.01310134       0.04912629       0.01504233
H       14.01567114       6.14267227      11.29017403      -0.24468484       0.02098998      -0.12004248       0.08312074       0.14804948       0.03420433
H        5.28632928       3.08080460      11.97635021      -0.25449302      -0.42169711       0.10789665      -0.07158925      -0.24548267      -0.17445605
H       14.17524917      11.87667651      12.80561441       0.35610638      -0.30781320      -0.24839440      -0.10504428       0.06348934      -0.08722483
H        4.03711642       7.30133800      12.23346803      -0.26697010      -0.07394441      -0.18627339       0.08925205       0.00531197      -0.04258838
H       15.22944456       4.52954942      12.72324349      -0.30268795      -0.22425417       0.77407273      -0.03120844      -0.00809051       0.02563496
H        6.99990000       2.76971113      11.89704248      -0.58889365      -0.35017533       0.57878035      -0.01229739      -0.07774220       0.02970193
H       13.37808354      13.45713717      12.97333749      -0.17765532       0.05778056       0.25205093      -0.16676913       0.13773450      -0.13943166
H        2.80842068       6.03718987      11.95728626      -0.04195043      -1.30458164      -0.83340142      -0.14819396       0.02043561       0.10598352
H       14.50132056       7.54253170      15.54605979      -0.19333778      -1.05754637       0.71276573      -0.06146790       0.23562026       0.09470158
C        5.99064146       1.45869107      13.12340401      -0.32682492       0.69150014      -0.01365309      -0.93268841      -0.15360924       0.09060340
C       12.32537474      12.10109205      11.86519325       0.48093397       0.58756456       0.37334232      -0.22252308       0.23059691      -0.37684574
C        2.15687682       7.64913302      13.04891918      -0.93845492       1.39664488       1.27422581      -0.12229801       0.27876572       0.31353553
C       15.96158624       6.23799626      11.89473952      -0.34398238       1.06195057      -0.39106162      -0.69756054       0.21332518       0.64791863
N        4.82178515       1.04096662      13.57472338      -0.79082844      -0.46405417       0.08865768       0.28781602       0.79483078      -0.43168577
N       12.30827696      10.97794236      11.18278805      -0.60843726      -0.55699298      -0.57720262      -0.09277973       0.08588928      -0.01351726
N        3.24963365       7.04207438      17.35415336      -0.16517936      -0.51258403      -0.33963713      -0.01377959      -0.29253315       0.22765148
N       14.89713877       6.64510900      11.18913310       0.81635282      -0.70822503       0.54111374       0.08035554       0.40953209       0.49418404
N        6.07222822       2.50075428      12.30861272       1.23855889       0.34196077      -0.68052504       0.10758440      -0.37548942      -0.16208396
N       13.36164283      12.48434020      12.60107327      -0.79858077       0.20283826      -0.18939891       0.14894539       0.60257948      -0.74145425
N        3.03940749       6.96218184      12.32824664       1.74500664       1.24734731       0.62109969      -0.05208942       0.13533876      -0.84810855
N       16.01088715       5.24469323      12.77497410       1.54215280       0.31360040      -0.62189559       0.21550739      -0.15135013       0.09084363
Pb       0.16385717       2.78415776      11.02595938      -0.27670435       0.50299760      -0.16369107       0.61400465       2.00251424      -4.59427912
Pb      17.85056023      10.75657746      14.35320403       0.28150044      -0.00069045      -0.00201323      -0.53967775      -1.93762129       1.66626980
Pb       8.32719263       8.49021615      11.25442685      -0.44187071       0.12954340      -0.23135453       0.72283135      -3.19438793      -0.06703348
Pb      10.37723811       4.88354757      13.58761108      -0.23060259      -0.39572388      -0.04341925      -0.06809039       0.09415037      -1.91500220
I       39.42123361       4.20323543      14.71609886       0.05824984      -0.23064247      -0.00056485       0.51445805      -1.11678509      -0.43906943
I       39.32242343       8.19664218      12.49443668       0.01637672       0.03521258      -0.11369903      -2.33616019      -0.02626243      -0.35024095
I        8.91823107      10.54759354      13.57135752       0.17114428       0.15527195       0.17055458      -0.58918908      -0.89700470       0.98682923
I        9.47057644       2.80188180      11.10584898      -0.00495982       0.25603415      -0.01727387      -0.36123817      -0.98910516       1.49600247
I       17.19452679       1.03817176      11.87708318       0.11749520       0.35838073      -0.12391290       0.56940466      -2.23267336      -0.53222230
I        1.03352158      12.69650285      13.60939415       0.09206261       0.08977074      -0.10216873       0.82179997      -1.40353886      -1.91324241
I       11.14928881       6.94432666      11.40697333       0.15097066       0.13549031      -0.39219714      -0.27157979      -3.60924008       1.20330517
I        7.29127296       6.42791480      13.39496839      -0.12444394      -0.13176463       0.12142725      -1.02612479      -0.77062925      -0.19414032
I        3.10760698       3.95736323      10.65754511      -0.10508683      -0.28084845       0.01073870      -1.35392059       1.04234649       0.58360318
I       14.96469571       9.61960810      14.10465605      -0.01144979       0.00601257      -0.01278096      -1.39523548      -1.69396865       0.19988085
I        5.28616876       9.73997620      11.59942914       0.11019708       0.02501302      -0.12721602      -1.26254948      -0.42652575      -0.11036239
I       13.18521051       3.65019152      13.86210528      -0.09240884      -0.14753544      -0.00028454       1.84595811      -0.00483444      -0.89236429
H        6.82376203       1.07349435      18.64817623       0.29540735      -0.20250823       0.37359044       0.06861898       0.04146374      -0.02185160
H       11.57955175      13.27232171      16.24853444      -0.01561678      -0.39212570      -0.19679502      -0.19166198       0.23993452      -0.00219002
H        1.23573647       6.71423948      17.80256544       0.58692991       0.04800971       0.22431785      -0.14310003      -0.20617185      -0.01825649
H       16.54880928       6.56363478      16.19236876      -0.07750423       0.36653388      -0.25340925      -0.12262077       0.07436691      -0.14242196
H        4.71885758       0.20394472      14.21684232       0.33033455       0.47862117      -0.36435180       0.11778140       0.25133178      -0.06542123
H       11.15113435      11.20702709      14.87586392      -0.35948330       0.13118441       0.14573642      -0.15900149       0.03924061       0.13023999
H        1.60917617       9.18777766      14.35139132       0.00055377       0.06444268      -0.22543488       0.12696148       0.01245298      -0.02988997
H       16.79362751       4.57217131      17.30702058       0.12704253       0.35608838      -0.01747295       0.02854648      -0.03887052      -0.05460500
H        5.04391396       2.87108551      17.02634460      -0.49623134       0.95224008      -0.63827047       0.09281317       0.08264162       0.23436393
H       12.69927220      10.49893473      15.52083145       0.31649511      -0.53812249      -0.31863494       0.06276837      -0.18679126       0.14955587
H        3.32858882       9.29450273      13.73738846      -0.28939474      -0.10912580       0.01735800      -0.04743872      -0.07055024      -0.14403990
H       15.01199150       4.34039896      17.45776519       0.83233984       0.64368693      -0.43212226       0.15906042       0.02780228       0.06122451
H        3.76676512       1.46194672      18.35413174       0.33184924      -0.28206974       0.14655987       0.09737525       0.01571346      -0.01456774
H       14.10336227      11.60102447      17.30067029      -0.25768478      -0.23111466      -0.19121837       0.04573075      -0.17333654      -0.04518945
H        2.61939147       9.19329213      18.92649192      -0.04134384      -0.56035188      -0.12254500       0.18501290       0.02714989       0.08721239
H       13.44770763       6.29036094      16.27336406      -0.23679565      -0.37270565       0.09563824      -0.06832036      -0.03941299      -0.01393866
H        4.70518835       0.23656382      19.39676407       0.03131971       0.69962820      -0.46133048       0.02550926       0.13188415      -0.23630313
H       13.56616500      13.30144164      17.60192548      -0.39722051      -0.06305589      -0.08538613      -0.10682738      -0.06579808      -0.10504164
H        0.94646322       8.62589642      19.02746707      -0.11522536      -0.02711762       0.25591033       0.10799210       0.22272331      -0.16994121
H       16.93415768       5.08064270      13.28153157      -1.22781003      -0.03767199      -0.58377752      -0.10818047      -0.10558936      -0.01014867
C        5.87792416       1.54526430      18.30940923      -0.08593477      -0.03969714      -0.97445896      -0.75493051       0.03331562       0.02853337
C       12.26230477      12.30900162      16.28264475       0.96754744       1.23483030       0.96403691       0.24521860      -0.67464414       0.51769307
C        2.13218610       7.35096238      17.98631266      -0.61762065      -0.21595630      -0.71532795      -0.76406254       0.53230187       1.32681806
C       15.60025587       6.05146390      16.44084569      -0.07956005       0.72998237      -0.86454149      -0.36038032       0.95622596      -0.34502252
N        5.93821398       2.47746109      17.31813265      -0.90869919      -0.82726092       1.59078173       0.35643019      -1.00933484       0.58951890
N       11.96958913      11.24150329      15.54830814       0.37935686       0.24485586       0.31062906      -0.20414816      -0.47516546       0.65804382
N        2.35992676       8.87069893      13.65543071       0.37554085      -0.97590801      -0.47494723       0.20424189      -0.03598189       0.03000631
N       15.83121314       4.91045614      17.05020343      -1.89993619      -1.68693293       0.91239086      -0.16623443       0.09729022       0.38391034
N        4.71000783       1.06986675      18.73497787       0.07621543      -0.07553370       0.22674071       0.25415899      -0.58650215      -0.35168866
N       13.38176617      12.38921732      17.10737533      -0.68183880      -0.50161656      -0.72572294       0.15366070       0.13897932       0.15417219
N        1.91752958       8.40775447      18.74277543       0.33677481       0.68317378       0.12934394      -0.12263040      -0.37749303       0.57761542
N       14.41142536       6.62951894      16.07861329       1.49076224       1.02840093      -0.05101533      -0.55625048       0.08870034      -0.00423902
Pb       0.18602852       2.78951856      15.75554153      -0.46507610       0.27870207      -0.25653147      -2.56720232      -0.99408182      -0.29808240
Pb      17.93160247      10.90287488      18.91557959       0.19697629      -0.64258650       0.16196756       1.02569874       0.35666131       0.81663999
Pb       7.90206353       8.43053636      15.86483786      -0.02474144       0.05922977      -0.00475131      -2.98286203      -0.32005111       0.67195815
Pb       9.81034892       4.73651937      18.22450442       0.08479589      -0.19297660      -0.11403945      -2.34066063       0.42113064      -0.31733727
I       39.23104330       4.09494927      19.34081813       0.16145374      -0.08902151       0.24304839      -1.67465495       0.71530309       0.98900253
I       39.34321680       8.39914763      17.00310121       0.02218797      -0.12347081       0.09063998       1.82704769       2.13102548       0.25766971
I        8.79123827      10.53649661      18.30276248      -0.05233449      -0.03633986      -0.12807435       0.96012589       0.02820975       1.10775450
I        9.10135850       2.65840623      15.65408135       0.07745722       0.20210892       0.23301451       2.35458263      -0.42724507       0.93912573
I       17.03186122       1.28985976      16.20825281      -0.02020928      -0.25089661      -0.04547716       0.87637186      -0.00426090       2.94914075
I        0.88550960      12.46931914      18.06047842       0.08187997       0.18939378       0.23536169       0.22823913      -1.66130703      -0.58727419
I       10.93735697       6.94229447      16.01088518       0.02491715       0.06734265       0.08027122       0.18409582      -1.00388170       0.16847066
I        6.91371258       6.29262497      18.16178252      -0.02763136       0.08664781      -0.03523028       1.75733331       0.81522651      -1.03751568
I        3.01674479       3.90822427      15.54256778       0.04942773       0.04153120      -0.02527351      -0.88181468       0.65265749      -1.73360698
I       15.03460479       9.57637258      18.72850169      -0.04275141       0.07331521      -0.12809054      -1.54726327       0.93338965       0.80473886