768
Lattice="32.0609120611585 -0.5112882221814271 -0.5475189371990378 0.2896562838185469 31.11650681404145 -0.5358671673453327 0.3216333527679892 0.2519783857508381 17.761452272036312" Properties=species:S:1:pos:R:3:forces:R:3:momenta:R:3 pbc="T T T"
H        2.78628103       2.73879122       2.91646081      -0.22757368      -0.11040187       0.82269074       0.09050330      -0.14349986      -0.04708349
H        2.77394664       3.39427536       5.31238984      -0.09475642      -0.95678443      -0.44957590       0.12623439       0.01477475      -0.16596154
H        3.07148606       1.74799094       5.80511682       0.08073925      -0.38805545       0.43768305       0.11138620      -0.34688633      -0.00577093
H        3.59019413       0.06563861       4.01916987       0.01751786      -0.32094604       0.00935048      -0.22148667       0.05884292       0.03046376
H        3.42749624       0.64289794       2.34336051      -0.01862350       0.06155543       0.20357028       0.21187926       0.19629134      -0.05805599
H        7.65206108       3.01153127      16.78116338       0.03432338       0.21985565      -0.05063853       0.29625719       0.14857932       0.04239948
H        7.51814318       2.61180509       1.37188664      -0.07130956       0.43412190      -0.47904110      -0.01577452      -0.22532556       0.01956339
H        7.07558959       4.34977448       1.62051231       0.12017893      -1.09341376      -1.16932105       0.21192628       0.29097818      -0.01551872
H        7.03655854       5.94878131      17.19022560      -0.23024472       0.60011607       0.30740314       0.34315954      -0.14995312       0.07384763
H        6.96929480       4.92907463      15.70242669       0.01044289       0.41620516      -0.37927200      -0.09347907       0.02059102      -0.10672521
C        2.94890186       2.00328700       3.75452662       0.63699096       1.73511436       0.52550600      -0.94314880       0.38626721       0.33780274
C        7.49410909       3.95381233      17.38034047      -0.35235528      -2.53184964      -0.24799417       0.20503403      -0.05157846      -0.15191453
N        2.85386108       2.38065173       5.03373938      -0.12141494       0.94456046      -1.24683280      -0.52657921       0.48489681      -0.37764670
N        3.39832114       0.83193930       3.35607042      -0.25284726      -1.06373323      -0.15640502       0.00355600      -0.34306298      -0.44977393
N        7.30009440       3.54709158       0.91831470       0.21008814       0.94716273       2.40829278       0.07406132      -0.02348179       0.21054680
N        7.08482909       5.03017655      16.73493496       0.17046990       0.76992926      -0.57176405      -0.56965074       0.72662030       0.06140124
Pb       5.99283446      30.19892438      16.70792790      -0.28725182       0.40948585      -0.15319250       1.94017814      -1.89801901      -0.28408042
Pb       1.88700388      30.45277982      16.99161077       0.16380837      -0.07770561      -0.41567551      -0.73428494      -1.18046392       0.04244201
I        7.65572608      31.02465658       1.47327423      -0.10776095       0.03072272      -0.30512147       1.87422977      -0.96873677      -0.39999411
I        2.72255702       5.16044198       1.64851753       0.08219943      -0.01526554       0.01033035       0.43869653      -0.40312289      -0.83738063
I        7.53574311       0.52450826       6.39426976       0.07551045      -0.05522260      -0.07054011       2.61054971      -0.90561494      -1.38151502
I        2.71146046       5.82059025       6.30797558       0.15010938      -0.03324910      -0.01127605      -1.43716231      -1.79009509      -0.53716295
I        6.62568006       3.91016865       4.31197427      -0.11926207       0.03080001       0.10373599       1.81367410      -3.14710724      -0.74468669
I        3.78570866       1.81062916      17.51387180      -0.14371177      -0.11571617       0.03462731       1.08585966      -0.66673386      -1.85315301
H        3.27915573      10.64099428       0.00532161      -0.22588021      -0.67371053      -0.32171317      -0.08509505       0.07037567      -0.14810819
H        3.30002507       8.53278454       0.89998111      -0.07816299      -0.55478301       0.95945072       0.01741560       0.12127912      -0.07359859
H        3.61487537       7.89239540      17.06649432      -0.17245172       0.68518446       0.79667104       0.02957569       0.03759191       0.00517674
H        3.47904933       9.74383648      14.99624001      -0.18214730      -0.43127125      -0.14703780      -0.13975798      -0.12357073      -0.14335061
H        3.40158839      11.39621330      15.59256590       0.07328249      -0.15066634      -0.10544485      -0.03005272       0.03913292      -0.02262930
H        8.11210356      10.77166416       4.29694492       0.00009153      -1.26883756       0.58958406       0.10434257      -0.06743361      -0.05600421
H        8.22643403      12.90375924       4.93973612       0.03919010       0.06554950       0.78213557      -0.00617280      -0.07342151       0.06332063
H        7.73850856      13.59875127       3.38568545       0.04532212       0.71273798      -0.68957224      -0.11109022      -0.02758300       0.23454565
H        6.94102483      11.91768839       1.57139522       0.14230527       0.14247049      -0.74132036      -0.05337714       0.10724726      -0.03724980
H       16.12053559      12.60476257       4.97318499      -0.06619957       0.24260472       0.38975275      -0.18685624       0.09226371       0.09002914
C        3.53706698      10.00516973      17.07760622      -0.15025710       0.39115095       0.23838383       0.01390170      -0.18528497      -0.16983593
C        7.82419140      11.52767430       3.54372072      -0.29444386       0.86369375      -1.55248258      -0.15485307      -0.98766429       0.23893821
N        3.23176344       8.53097811      -0.11768766       0.48822137       0.57193844      -2.47109961       0.51102465      -0.11908731       0.01845907
N        3.43785857      10.37327390      15.79514528       0.18632402      -0.00634134       0.76700403      -0.43010568      -0.92021958       0.39442888
N        7.97248572      12.76324941       3.96656660      -0.18732413      -0.76427421      -0.24031167       0.50794308      -0.04735306      -0.74628802
N        7.25782413      11.20372002       2.30340801       0.40944167      -1.12662800       2.41028608       0.18641669       0.79194896       0.33793982
Pb       4.72854320       6.48952136       3.81430666       0.04768297       0.08068871       0.18060993      -1.81226182       1.33084661       0.58404362
Pb       0.83202032       6.73761376       3.72204157      -0.10619820      -0.30178730       0.25833929      -1.39846889      -3.39365523       2.09014157
I        6.75680665       8.04737075       5.96457220      -0.06719039       0.07542795      -0.30021628       0.10999885       0.99841346       2.17497849
I        3.39226930      13.67966209       5.77735628       0.16953149       0.15663795       0.11300364      -1.72477401       0.70858855       0.06838850
I        6.70791232       7.37227010       1.45767205       0.26656788       0.18362815       0.24631231      -0.23599549      -1.31634734       0.02795534
I        3.39146551      13.10838362       1.25686935       0.15552472      -0.25432194       0.37870919       0.94158046      -0.08225802      -0.74010041
I        7.57797208      12.23491663      16.56205369       0.23185468      -0.37075789      -0.07256187       1.04958253      -1.22151783      -1.60047013
I        2.70933361       9.10421167       3.23243724       0.23005058       0.23527120       0.22987166       0.79471692      -0.66327404       1.74826240
H       11.62422198       2.53684769       3.15999644       0.13519045      -0.28107006      -0.44091817      -0.24720073      -0.06287237       0.24612228
H       11.77940002       2.88163758       5.38676423      -0.01255459      -0.57979747      -0.22047548       0.08702952       0.29082600       0.30853765
H       12.02264660       1.19552794       5.78377595      -0.20721044      -0.27998132       0.32678764       0.13887364      -0.07198349       0.10270049
H       11.94957723      30.60392099       3.06357562       0.08487285       0.17616975       0.09067291       0.08726596      -0.08479431      -0.07742817
H       11.74672139       0.46485591       2.06144348      -0.25314629       0.00215071       0.94851150      -0.03133747      -0.11042293       0.21780088
H       15.43247270       4.79676969       0.13611249      -0.18578216       0.53534001       0.30772121       0.09575997      -0.03102598       0.04630889
H       15.49705234       5.61102826      15.63250902       0.01816989       0.44919443       0.15203006       0.06803959       0.11661367      -0.00861652
H       15.27226171       3.94933682      15.11403721       0.06337429      -0.31057732      -0.09637830       0.05030853       0.31890186       0.13417147
H       15.40514065       2.09527693      17.05768389      -0.12276698       0.72431958       0.54276742       0.14077120       0.11443307       0.09966346
H       15.17890371       2.63238253       0.90667674       0.12603418      -0.16745254       0.59937114       0.01637715       0.15701319      -0.00150559
C       11.72874518       1.60205134       3.76127016      -0.42478883       1.42837913       0.33454351       0.05672705       0.51770465      -0.24037944
C       15.57460602       4.24189438      17.15881804       0.20934637      -1.18540678       0.37614224      -0.60195025      -0.43261135      -0.32779848
N       11.81022399       1.88675895       5.05918381       0.19402821       0.11170649       0.07208912      -0.03250941       0.14284487      -0.15863653
N       11.66489327       0.42463306       3.13208674       0.36515416      -0.64510432      -0.89295992       0.43289042       0.21570520       0.52720868
N       15.45248684       4.61413253      15.90295187       0.09039307      -0.72945345       0.40086507       0.43918635       1.04142848       0.66183151
N       15.17867077       2.71807267      -0.09448901      -0.20264807       0.80534571      -1.96619962       0.35431276       0.14362471      -0.21282147
Pb      13.93670443      29.87183964      16.57826864       0.00457197      -0.25187418       0.11424402      -3.06977842       0.95121423      -2.35683529
Pb       9.92581402      30.27173292      16.75548982      -0.05501448      -0.27752744       0.20225942      -0.08700061       0.21865440      -1.50829580
I       15.56276726      30.49875438       1.26434580       0.00931810       0.34152921       0.18985708       0.46565166      -0.08753679       2.20108626
I       10.69384239       4.93315908       1.80073554       0.07718567       0.06689582       0.22409594      -0.25331011       2.39494976      -0.99267371
I       15.37487662       0.33764670       6.29921686      -0.03175987       0.14144231      -0.25514794      -0.43446889       0.57953549       0.50421682
I       10.78692411       5.28052960       6.40868893      -0.00562270       0.12185036      -0.24718650      -1.60653310      -0.24038877      -0.33924106
I       14.69880668       3.80236478       3.61903786      -0.01526714       0.03508681      -0.10870233       0.61233229      -0.29081598      -0.20765385
I       11.74545319       1.35195876      17.53105663       0.12583931       0.42500332      -0.01093782      -1.45831324       0.40490859      -1.99803293
H       11.08734950      10.10411313       0.29163109       0.17015281      -0.13960663      -0.35081153      -0.10381148      -0.13750742      -0.05503654
H       11.58568338      10.98771634      15.76256361      -0.02086847      -0.16605909       0.20126844       0.07774125      -0.14051508       0.29643689
H       11.56969921       9.29511633      15.22807248       0.25239947       0.67025349       0.52767553      -0.00468677      -0.14193448       0.20167539
H       11.44653954       7.46656221      17.11750448       0.22413782       0.02952665       0.01284429       0.01152416       0.02247960       0.00119519
H       11.13390183       7.99624476       0.94592731      -0.19533022      -0.53763906       0.58309880      -0.01289330       0.09024318       0.01691174
H       15.56111816      10.47731384       4.35391941      -0.09063647       0.22598848      -0.39741062      -0.04668312      -0.07202635      -0.06163836
H       15.30002054       9.87608836       2.17888867       0.10221150      -0.11220481      -0.47764925       0.09335927      -0.16429953       0.11016392
H       15.85517302      11.49315305       1.48266405      -0.27307845      -0.97990623       0.77127372       0.00785620       0.02743882       0.06865999
H       16.09982219      13.24307336       3.26746230      -0.07706787      -0.78534392       1.06974830      -0.20102156      -0.04214714       0.10416476
H        7.46185607      10.13200638       2.13322243      -0.25972038       0.97597732      -0.29126806      -0.12870673      -0.00067131      -0.13007128
C       11.51305471       9.56178610      17.26307297       0.39751086       0.86986376       0.25968240       0.17707580       0.03924362      -0.13180884
C       15.70672481      11.24168460       3.55335585       0.16535606       0.10755438       1.82157450       0.66159304      -0.01329579      -0.25520215
N       11.65457775       9.96916347      16.02225038      -0.51924407      -0.78404700      -0.95718487      -0.16719380       0.71002002       0.13697844
N       11.23195733       8.05210583      -0.05947098      -0.38429441       0.07157241      -0.32623656       0.53527178       0.05481400      -0.11344394
N       15.62428880      10.85763401       2.31603226      -0.03652260       0.88863703      -1.25801474       0.50961062       0.00276047      -0.41526022
N       15.96116521      12.46345593       3.98506222       0.19271860       0.43555416      -1.68053891       1.03858777      -0.06562515      -0.18999702
Pb      12.72071012       6.31428093       3.89964017      -0.03566172       0.17137337       0.04349231      -1.56464191       0.41691565       0.80890084
Pb       8.68046564       6.36363523       4.02429479       0.15729455       0.15146479      -0.07184392      -0.39791143      -0.51877548       0.17551276
I       15.13246074       7.83470252       5.77797138      -0.29177781       0.01434490      -0.01456683      -1.43936092       0.26745815       0.07640533
I       11.45240421      13.31254778       5.82401034      -0.05239821       0.03458831      -0.34394564       1.21888463       1.17848520       0.97267937
I       14.68190852       7.49004101       1.62539131      -0.26588350       0.03213589      -0.51543096       1.74099320      -0.81144549      -0.29599472
I       11.56339122      12.71388515       1.26615012      -0.18488402       0.02336508      -0.06910903      -0.12226578       0.66801136       0.48073950
I       15.88254949      11.87535338      16.55189257       0.12037217       0.10792803      -0.09041939       0.41083846       1.23304324      -0.09170174
I       10.51376125       9.02631049       3.59186213       0.23789501      -0.30238105       0.05582631       1.03857311      -1.10869955       1.08142792
H        2.94709771       2.86478041      11.79718695      -0.22757368      -0.11040187       0.82269074       0.09050330      -0.14349986      -0.04708349
H        2.93476332       3.52026455      14.19311598      -0.09475642      -0.95678443      -0.44957590       0.12623439       0.01477475      -0.16596154
H        3.23230274       1.87398013      14.68584296       0.08073925      -0.38805545       0.43768305       0.11138620      -0.34688633      -0.00577093
H        3.75101081       0.19162780      12.89989601       0.01751786      -0.32094604       0.00935048      -0.22148667       0.05884292       0.03046376
H        3.58831292       0.76888713      11.22408665      -0.01862350       0.06155543       0.20357028       0.21187926       0.19629134      -0.05805599
H        7.49124441       2.88554207       7.90043725       0.03432338       0.21985565      -0.05063853       0.29625719       0.14857932       0.04239948
H        7.67895986       2.73779428      10.25261278      -0.07130956       0.43412190      -0.47904110      -0.01577452      -0.22532556       0.01956339
H        7.23640627       4.47576367      10.50123845       0.12017893      -1.09341376      -1.16932105       0.21192628       0.29097818      -0.01551872
H        6.87574187       5.82279211       8.30949947      -0.23024472       0.60011607       0.30740314       0.34315954      -0.14995312       0.07384763
H        6.80847813       4.80308543       6.82170056       0.01044289       0.41620516      -0.37927200      -0.09347907       0.02059102      -0.10672521
C        3.10971854       2.12927619      12.63525276       0.63699096       1.73511436       0.52550600      -0.94314880       0.38626721       0.33780274
C        7.33329242       3.82782313       8.49961434      -0.35235528      -2.53184964      -0.24799417       0.20503403      -0.05157846      -0.15191453
N        3.01467776       2.50664092      13.91446552      -0.12141494       0.94456046      -1.24683280      -0.52657921       0.48489681      -0.37764670
N        3.55913782       0.95792849      12.23679656      -0.25284726      -1.06373323      -0.15640502       0.00355600      -0.34306298      -0.44977393
N        7.46091108       3.67308077       9.79904084       0.21008814       0.94716273       2.40829278       0.07406132      -0.02348179       0.21054680
N        6.92401242       4.90418735       7.85420883       0.17046990       0.76992926      -0.57176405      -0.56965074       0.72662030       0.06140124
Pb       5.83201778      30.07293519       7.82720177      -0.28725182       0.40948585      -0.15319250       1.94017814      -1.89801901      -0.28408042
Pb       1.72618720      30.32679063       8.11088464       0.16380837      -0.07770561      -0.41567551      -0.73428494      -1.18046392       0.04244201
I        7.81654276      31.15064578      10.35400037      -0.10776095       0.03072272      -0.30512147       1.87422977      -0.96873677      -0.39999411
I        2.88337370       5.28643117      10.52924367       0.08219943      -0.01526554       0.01033035       0.43869653      -0.40312289      -0.83738063
I        7.69655979       0.65049745      15.27499590       0.07551045      -0.05522260      -0.07054011       2.61054971      -0.90561494      -1.38151502
I        2.87227714       5.94657944      15.18870172       0.15010938      -0.03324910      -0.01127605      -1.43716231      -1.79009509      -0.53716295
I        6.78649674       4.03615784      13.19270041      -0.11926207       0.03080001       0.10373599       1.81367410      -3.14710724      -0.74468669
I        3.62489199       1.68463996       8.63314567      -0.14371177      -0.11571617       0.03462731       1.08585966      -0.66673386      -1.85315301
H        3.43997241      10.76698347       8.88604775      -0.22588021      -0.67371053      -0.32171317      -0.08509505       0.07037567      -0.14810819
H        3.46084175       8.65877373       9.78070725      -0.07816299      -0.55478301       0.95945072       0.01741560       0.12127912      -0.07359859
H        3.45405870       7.76640620       8.18576819      -0.17245172       0.68518446       0.79667104       0.02957569       0.03759191       0.00517674
H        3.31823266       9.61784728       6.11551388      -0.18214730      -0.43127125      -0.14703780      -0.13975798      -0.12357073      -0.14335061
H        3.24077172      11.27022410       6.71183977       0.07328249      -0.15066634      -0.10544485      -0.03005272       0.03913292      -0.02262930
H        8.27292024      10.89765335      13.17767106       0.00009153      -1.26883756       0.58958406       0.10434257      -0.06743361      -0.05600421
H        8.38725071      13.02974843      13.82046226       0.03919010       0.06554950       0.78213557      -0.00617280      -0.07342151       0.06332063
H        7.89932524      13.72474046      12.26641159       0.04532212       0.71273798      -0.68957224      -0.11109022      -0.02758300       0.23454565
H        7.10184151      12.04367758      10.45212136       0.14230527       0.14247049      -0.74132036      -0.05337714       0.10724726      -0.03724980
H       16.28135227      12.73075176      13.85391113      -0.06619957       0.24260472       0.38975275      -0.18685624       0.09226371       0.09002914
C        3.37625031       9.87918053       8.19688009      -0.15025710       0.39115095       0.23838383       0.01390170      -0.18528497      -0.16983593
C        7.98500808      11.65366349      12.42444686      -0.29444386       0.86369375      -1.55248258      -0.15485307      -0.98766429       0.23893821
N        3.39258012       8.65696730       8.76303848       0.48822137       0.57193844      -2.47109961       0.51102465      -0.11908731       0.01845907
N        3.27704190      10.24728470       6.91441915       0.18632402      -0.00634134       0.76700403      -0.43010568      -0.92021958       0.39442888
N        8.13330240      12.88923860      12.84729274      -0.18732413      -0.76427421      -0.24031167       0.50794308      -0.04735306      -0.74628802
N        7.41864081      11.32970921      11.18413415       0.40944167      -1.12662800       2.41028608       0.18641669       0.79194896       0.33793982
Pb       4.88935988       6.61551055      12.69503280       0.04768297       0.08068871       0.18060993      -1.81226182       1.33084661       0.58404362
Pb       0.99283700       6.86360295      12.60276771      -0.10619820      -0.30178730       0.25833929      -1.39846889      -3.39365523       2.09014157
I        6.91762333       8.17335994      14.84529834      -0.06719039       0.07542795      -0.30021628       0.10999885       0.99841346       2.17497849
I        3.55308598      13.80565128      14.65808242       0.16953149       0.15663795       0.11300364      -1.72477401       0.70858855       0.06838850
I        6.86872900       7.49825929      10.33839819       0.26656788       0.18362815       0.24631231      -0.23599549      -1.31634734       0.02795534
I        3.55228219      13.23437281      10.13759549       0.15552472      -0.25432194       0.37870919       0.94158046      -0.08225802      -0.74010041
I        7.41715541      12.10892743       7.68132756       0.23185468      -0.37075789      -0.07256187       1.04958253      -1.22151783      -1.60047013
I        2.87015029       9.23020086      12.11316338       0.23005058       0.23527120       0.22987166       0.79471692      -0.66327404       1.74826240
H       11.78503866       2.66283688      12.04072258       0.13519045      -0.28107006      -0.44091817      -0.24720073      -0.06287237       0.24612228
H       11.94021670       3.00762677      14.26749037      -0.01255459      -0.57979747      -0.22047548       0.08702952       0.29082600       0.30853765
H       12.18346328       1.32151713      14.66450209      -0.20721044      -0.27998132       0.32678764       0.13887364      -0.07198349       0.10270049
H       12.11039391      30.72991019      11.94430176       0.08487285       0.17616975       0.09067291       0.08726596      -0.08479431      -0.07742817
H       11.90753807       0.59084510      10.94216962      -0.25314629       0.00215071       0.94851150      -0.03133747      -0.11042293       0.21780088
H       15.59328938       4.92275888       9.01683863      -0.18578216       0.53534001       0.30772121       0.09575997      -0.03102598       0.04630889
H       15.33623567       5.48503906       6.75178289       0.01816989       0.44919443       0.15203006       0.06803959       0.11661367      -0.00861652
H       15.11144504       3.82334762       6.23331108       0.06337429      -0.31057732      -0.09637830       0.05030853       0.31890186       0.13417147
H       15.24432398       1.96928773       8.17695776      -0.12276698       0.72431958       0.54276742       0.14077120       0.11443307       0.09966346
H       15.33972039       2.75837172       9.78740288       0.12603418      -0.16745254       0.59937114       0.01637715       0.15701319      -0.00150559
C       11.88956186       1.72804053      12.64199630      -0.42478883       1.42837913       0.33454351       0.05672705       0.51770465      -0.24037944
C       15.41378935       4.11590518       8.27809191       0.20934637      -1.18540678       0.37614224      -0.60195025      -0.43261135      -0.32779848
N       11.97104067       2.01274814      13.93990995       0.19402821       0.11170649       0.07208912      -0.03250941       0.14284487      -0.15863653
N       11.82570995       0.55062225      12.01281288       0.36515416      -0.64510432      -0.89295992       0.43289042       0.21570520       0.52720868
N       15.29167017       4.48814333       7.02222574       0.09039307      -0.72945345       0.40086507       0.43918635       1.04142848       0.66183151
N       15.33948745       2.84406186       8.78623713      -0.20264807       0.80534571      -1.96619962       0.35431276       0.14362471      -0.21282147
Pb      13.77588775      29.74585045       7.69754251       0.00457197      -0.25187418       0.11424402      -3.06977842       0.95121423      -2.35683529
Pb       9.76499734      30.14574373       7.87476369      -0.05501448      -0.27752744       0.20225942      -0.08700061       0.21865440      -1.50829580
I       15.72358394      30.62474358      10.14507194       0.00931810       0.34152921       0.18985708       0.46565166      -0.08753679       2.20108626
I       10.85465907       5.05914827      10.68146168       0.07718567       0.06689582       0.22409594      -0.25331011       2.39494976      -0.99267371
I       15.53569330       0.46363589      15.17994300      -0.03175987       0.14144231      -0.25514794      -0.43446889       0.57953549       0.50421682
I       10.94774079       5.40651879      15.28941507      -0.00562270       0.12185036      -0.24718650      -1.60653310      -0.24038877      -0.33924106
I       14.85962336       3.92835397      12.49976400      -0.01526714       0.03508681      -0.10870233       0.61233229      -0.29081598      -0.20765385
I       11.58463652       1.22596956       8.65033050       0.12583931       0.42500332      -0.01093782      -1.45831324       0.40490859      -1.99803293
H       11.24816618      10.23010232       9.17235723       0.17015281      -0.13960663      -0.35081153      -0.10381148      -0.13750742      -0.05503654
H       11.42486671      10.86172714       6.88183748      -0.02086847      -0.16605909       0.20126844       0.07774125      -0.14051508       0.29643689
H       11.40888254       9.16912713       6.34734635       0.25239947       0.67025349       0.52767553      -0.00468677      -0.14193448       0.20167539
H       11.28572287       7.34057301       8.23677835       0.22413782       0.02952665       0.01284429       0.01152416       0.02247960       0.00119519
H       11.29471851       8.12223395       9.82665345      -0.19533022      -0.53763906       0.58309880      -0.01289330       0.09024318       0.01691174
H       15.72193484      10.60330303      13.23464555      -0.09063647       0.22598848      -0.39741062      -0.04668312      -0.07202635      -0.06163836
H       15.46083722      10.00207755      11.05961481       0.10221150      -0.11220481      -0.47764925       0.09335927      -0.16429953       0.11016392
H       16.01598970      11.61914224      10.36339019      -0.27307845      -0.97990623       0.77127372       0.00785620       0.02743882       0.06865999
H       16.26063887      13.36906255      12.14818844      -0.07706787      -0.78534392       1.06974830      -0.20102156      -0.04214714       0.10416476
H        7.62267275      10.25799557      11.01394857      -0.25972038       0.97597732      -0.29126806      -0.12870673      -0.00067131      -0.13007128
C       11.35223804       9.43579690       8.38234684       0.39751086       0.86986376       0.25968240       0.17707580       0.03924362      -0.13180884
C       15.86754149      11.36767379      12.43408199       0.16535606       0.10755438       1.82157450       0.66159304      -0.01329579      -0.25520215
N       11.49376108       9.84317427       7.14152425      -0.51924407      -0.78404700      -0.95718487      -0.16719380       0.71002002       0.13697844
N       11.39277401       8.17809502       8.82125516      -0.38429441       0.07157241      -0.32623656       0.53527178       0.05481400      -0.11344394
N       15.78510548      10.98362320      11.19675840      -0.03652260       0.88863703      -1.25801474       0.50961062       0.00276047      -0.41526022
N       16.12198189      12.58944512      12.86578836       0.19271860       0.43555416      -1.68053891       1.03858777      -0.06562515      -0.18999702
Pb      12.88152680       6.44027012      12.78036631      -0.03566172       0.17137337       0.04349231      -1.56464191       0.41691565       0.80890084
Pb       8.84128232       6.48962442      12.90502093       0.15729455       0.15146479      -0.07184392      -0.39791143      -0.51877548       0.17551276
I       15.29327742       7.96069171      14.65869752      -0.29177781       0.01434490      -0.01456683      -1.43936092       0.26745815       0.07640533
I       11.61322089      13.43853697      14.70473648      -0.05239821       0.03458831      -0.34394564       1.21888463       1.17848520       0.97267937
I       14.84272520       7.61603020      10.50611745      -0.26588350       0.03213589      -0.51543096       1.74099320      -0.81144549      -0.29599472
I       11.72420790      12.83987434      10.14687626      -0.18488402       0.02336508      -0.06910903      -0.12226578       0.66801136       0.48073950