768
Lattice="40.227587415121015 -0.7682833808457515 1.3263590934115383 0.394859312395313 23.52400323722727 0.25591382290307674 -0.5366011814355014 -0.10491616676151522 18.726843227480614" Properties=species:S:1:pos:R:3:forces:R:3:momenta:R:3 pbc="T T T"
H        6.48687685       1.54661001       4.18962688      -1.09609573       0.12487963      -0.14006075      -0.20033646       0.06242190      -0.04601494
H       11.36185366      13.29901828       1.63245331       0.31758638      -0.74340080      -0.10893392       0.07467474      -0.02989099       0.11696100
H        1.10004616       7.29419181       4.01096520      -0.49128665      -0.32564153       0.06824499       0.03995602       0.02822569      -0.00432135
H       16.78504876       6.62270524       2.00198729      -0.03471227       0.09581920      -0.08407375       0.23440926       0.03922242      -0.03868692
H        6.36215438       3.42494271       7.44336122      -0.08999117       0.25686474       0.13662447       0.17222950       0.02108269      -0.06218554
H       11.07621691      11.41569727      18.90202738       0.04269644      -0.20143602      -0.04062138      -0.18169469      -0.03515824       0.09170533
H        3.01663307       6.77782566       7.40844077       0.04489003      -1.26090113      -0.62428127      -0.02236621      -0.16519607       0.22479461
H       14.98361599       7.75196442       1.07761225      -0.56183421      -0.52851443       0.19821272       0.14761716      -0.05766052       0.17274049
H        3.42029303       1.91303779       4.23142760       0.45846588      -0.54984131       0.15361199      -0.01033003       0.08545585       0.03825180
H       13.27674717      11.08483464       0.66441519      -0.28425100       0.27451729       0.41959045       0.05393188       0.02512478      -0.01939242
H        3.79683761       8.25505483       7.87759787       0.81282444       0.29975225      -0.27657919       0.07659778       0.13723644       0.07902501
H       13.91902388       6.22978549       1.20903694      -0.27837978       0.13941063      -0.17320444       0.16247130       0.04076062      -0.01331318
H        4.69098835       3.61861424       2.80145391       0.59268612      -0.72811696       0.54656326       0.11749130      -0.08705596      -0.09373819
H       13.90941148      12.27826208       3.05634366      -0.04974355       0.81958839       0.46856407      -0.12629226      -0.00640215       0.10861937
H        3.84577195       8.17779168       2.90963938      -0.62121825      -0.65995994      -0.10715892       0.13195956      -0.08537526       0.14420099
H       14.86393241       4.23359250       2.28686374       1.15610716       0.27840030       0.08816452      -0.02401737       0.07929416      -0.14277281
H        6.44009280       3.42515152       2.96334888       0.92517859       0.17913650      -0.45351969       0.03150881      -0.14058121       0.04034749
H       12.91212608      13.75387017       3.52925340       0.23547311      -0.35389722      -0.37208647      -0.03649384       0.01407938      -0.10923672
H        2.98537404       6.45848371       2.89391880       0.12496328      -0.21748071      -0.31356144       0.11601093       0.18335386       0.11645158
H       15.04177548       7.54205574       5.48315062      -0.01882875      -0.48685463       0.46901118      -0.03952811      -0.13396253      -0.26807860
C        5.45162490       1.98518270       3.93037880       1.24489730       0.29077444       0.52342460      -0.23127636       0.58201696      -0.29769213
C       12.27261268      12.62165144       1.77235210      -0.97601148       1.03458402       0.16769807      -0.71954239      -0.09454296      -0.08151852
C        1.99715660       7.94024715       3.88135744       1.22485862       1.07171267       0.05699761      -0.26226614       0.02940209       0.03229055
C       15.82524314       6.06871407       1.89748754       1.01861301      -0.39469848       0.27396839       0.35540593      -0.48646738       0.81970733
N        4.34521940       1.45543052       4.41340096      -0.43700957       0.67319573      -0.60061920      -0.44311142       0.23033278       0.13350959
N       12.40990930      11.62853285       0.87051370       0.03772135       0.24636184      -0.22907910      -0.11226423       0.36479688      -0.25331999
N        3.00560905       7.60362407       7.94657899       0.57031145      -0.06934386      -0.28101102       0.19483823       0.49001362      -0.65391735
N       14.79192112       6.75735239       1.42319208       0.13853090       1.14008057      -0.59899023       0.03205712       0.24675859      -0.05978126
N        5.53070574       3.12495094       3.27072987      -1.60924026       0.30711389      -0.26813603      -0.22495985      -0.50297403       0.46637190
N       13.11075273      12.95723437       2.84138166       0.62796277      -1.07155247      -0.19255496      -0.38947565       0.09612609      -0.44352607
N        3.03460260       7.44424420       3.22824083       0.17699028       0.91228170       0.52811103       0.10878810       0.53778653       0.12162215
N       15.81521357       4.72168103       2.24436773      -1.86636776      -0.35964391      -0.17817857       0.30166322       0.42859413      -0.36563259
Pb      40.22418498       2.42021286       2.57412076      -0.14887886       0.35943451       0.12158987       1.67117145      -1.87463757       2.35503377
Pb      17.97653798      10.97493703       4.55399218      -0.07742423      -0.02900989      -0.21900441      -2.01834420      -1.33565208       1.32933011
Pb       7.84875159       9.14893074       1.84171504      -0.09252104       0.07583780      -0.13088486       2.25650715      -2.60629019      -0.92419899
Pb       9.79191127       5.49730154       4.08754186       0.08963569      -0.07520434       0.01118502       0.72038435      -1.13130019       2.29338096
I       39.08194126       4.57769474       5.03013315       0.07008700      -0.17472072      -0.20187399      -0.62288551      -0.07869639       0.65050930
I       39.03832734       8.66604147       2.53576185      -0.09006570       0.06696563       0.09973928       1.08059456       1.82814589      -0.00316716
I        8.52199106      11.04782067       4.08263232       0.43769550       0.22617289       0.31283875       0.73044554       0.51597881       0.07232285
I        8.76892042       3.51820213       1.70001963       0.18061132       0.00924294      -0.07705779      -1.04982314      -0.08173836       1.16309147
I       16.98580697       1.42114687       1.93493560       0.10689668      -0.13856690       0.00051514      -1.00864884      -0.78883422       0.17463981
I        0.98609507      12.80274446       3.77186349      -0.05358687       0.08574011       0.03007566       1.95386810      -0.31321844       0.57025507
I       10.79749882       7.77699980       1.84356391       0.04935298      -0.19758758       0.02030537       1.85402927      -0.54888612      -0.33870931
I        6.89008285       7.08526225       4.10342524      -0.11210870      -0.26640821       0.02327903       0.35664901      -2.11204797       0.08456133
I        2.86857963       4.51380147       1.18643175      -0.03346234      -0.09994568      -0.04198392      -1.06670546       1.06907720       1.52635900
I       15.08650933       9.79247492       4.28038277      -0.09472505       0.16598897      -0.10916247      -0.50640360      -0.91409648      -0.12776052
I        4.84298006      10.36886599       2.11175437       0.08069402       0.04108324      -0.16568952       0.03852826      -0.14863815       0.74216193
I       12.70486517       4.29606745       4.62408815       0.04510313      -0.17963252      -0.21736882      -0.85758333      -0.83258029       0.41078645
H        6.31127334       1.61698948       8.70933584       0.67546421      -0.92490103       0.06087829       0.03175376       0.11558759       0.08596808
H       11.48140129      13.17794366       6.61126094      -0.53481133      -0.27777864       0.00329983      -0.20103291      -0.20138948      -0.06073129
H        1.09989007       7.22808547       8.67066774      -0.54495390       0.09962505      -0.18027642       0.01380023       0.01149814      -0.26758473
H       16.87706643       6.52221102       6.65375142       0.38678585       0.27032149      -0.14906279      -0.24904246       0.17789140       0.04680790
H        4.37266232       0.56111259       4.88475039      -0.03210480      -0.38616450       0.31152144      -0.13621817       0.19634836      -0.08499411
H       11.04325393      11.07701427       5.65089190      -0.07093947      -0.34003407      -0.23363940       0.15936672      -0.09293326       0.10066195
H        1.16440758       9.50487806       4.83604111      -0.70469829       0.36073510       0.50136547       0.06650691       0.11826412      -0.11297236
H       16.55367683       4.55774000       7.80361579      -0.18392946      -0.19232238       0.22261002      -0.18770979      -0.03699724      -0.13059960
H        4.60140696       3.80079096       7.60219326       1.00243640      -0.83111151       0.08682963      -0.04112115       0.20252351       0.01733264
H       12.68945209      10.47885357       5.81195365       0.75959323      -0.54963382       0.03119233       0.07351393       0.19026833      -0.22885420
H        2.85574250       9.83775942       4.43945737      -0.41951813      -0.37624876      -0.25349403      -0.11150037      -0.03488569       0.06828172
H       14.76755021       4.53126473       7.56760173      -0.18063871      -0.06228890       0.01215094       0.03118354      -0.01456116      -0.06957510
H        3.28582366       1.74540994       8.86785648      -0.61813080       0.71259489      -0.35691988      -0.04236212      -0.08543964      -0.16056108
H       14.21593504      12.24240438       7.20485478       0.22273932      -0.25694803       0.01588459       0.08403314      -0.05089768      -0.08105449
H        2.72846208       9.79324252       9.23506018       0.29361251      -0.14211889       0.12504319      -0.01705125       0.07815361      -0.10903945
H       13.93901262       6.25944442       5.94407599      -0.33341095      -0.41514765       0.16673155       0.03581878      -0.11063540      -0.04470652
H        4.37756720       0.56433804       9.41737745       0.02881692      -0.97754094       0.60973142      -0.13698823      -0.04766906      -0.06939615
H       13.34144307      13.74724110       7.50319005       0.21873167       0.38555718       0.36588122       0.02365328      -0.01908380      -0.04436605
H        1.07265178       9.42637471       9.71861647       0.02531353      -0.27686483      -0.08156050       0.03559527       0.09549431      -0.06060432
H       16.65010642       4.26580956       2.62930255       0.45084957      -0.15536649       0.51552104      -0.04128283      -0.03018189       0.09620017
C        5.34018695       2.04503585       8.49634933       0.52892447       1.81201938      -1.12328116      -0.23955045       0.13995911      -0.08331871
C       12.24971389      12.36852245       6.61901574      -0.75169168      -0.42611108      -1.06872040      -0.54039071      -0.23469556      -0.25843221
C        1.94276569       7.95972851       8.58254118      -0.30345762       0.42526504       1.12511236       0.39047379      -0.14548107      -0.64947987
C       15.87896507       6.07923587       6.68205252      -1.87876052      -0.75341937       0.09299502       0.21264503       0.15056489      -0.15624128
N        5.44142656       3.20649680       7.84633314      -1.26422479      -0.15701731       0.34562142      -0.16455141      -0.20084693       0.43830413
N       11.97970376      11.14793511       6.07372276      -0.95554734       1.31753662       0.33513698      -0.16685623      -0.37379096       0.14396884
N        2.00184938       9.23490359       4.34775881       0.77520443      -0.73031821      -0.49355508       0.19050392       0.06496347       0.19251663
N       15.69045169       4.95520376       7.39043340       1.05402500       0.50908958      -0.19614278       0.58722059      -0.16964661       1.04528613
N        4.25159746       1.41704616       8.90096026      -0.07185279      -0.01903390       0.35971199       0.03434712      -0.51329254      -0.46759039
N       13.35871656      12.78691989       7.13330794       0.87843312       0.29636122       0.45418191       0.35560293       0.24728438       0.28504985
N        1.92906373       9.08981966       9.24864839      -1.04876710       0.69258011       0.15937259      -0.08541392       0.36672359       0.06529793
N       14.86265437       6.67747659       6.06048290       1.12862048       1.23850628      -0.60761335       0.23556547      -0.16319169       0.01217658
Pb      -0.04013682       3.33991157       5.87736149      -0.31667258       0.08660093       0.12394299      -1.66397954       0.34109437      -4.70050945
Pb      17.76400903      11.03545652       9.04732352      -0.02692266       0.05805880      -0.17831374      -0.21370527      -1.95771184      -2.16250518
Pb       7.68452626       8.99845059       6.54888704       0.26429043       0.15856481      -0.06244889       2.30813500       0.87632910       0.13222135
Pb       9.74739763       5.53017384       8.81086500      -0.00956363      -0.07181508      -0.06763134      -1.46340892       0.66591673       0.92014236
I       39.00840709       4.59967819       9.63215260       0.23534411      -0.32275579       0.02597906      -0.40376642       1.18837173       2.43463899
I       39.06626876       8.42146192       7.41661818      -0.17400654       0.32131092       0.08888819      -0.56176547      -0.82673584       0.87773331
I        8.77087857      11.07679244       8.92365319      -0.09257092       0.05060408      -0.12989897      -1.32480898       1.01617481      -0.60812295
I        8.81600113       3.42863399       6.45813992       0.05459966       0.03509297      -0.01558567      -0.69278161      -1.21300651       0.62054496
I       16.78452593       1.61111935       6.33776920       0.26965396      -0.30038971       0.25670830      -0.72710352      -0.17846520      -1.22681790
I        0.79007345      12.89975771       8.52965999       0.00654366      -0.10778188      -0.11486463      -0.47523838      -0.17214592       0.06418032
I       10.77226524       7.53943844       6.34449484      -0.00053729       0.07968222       0.16699540       0.14244714      -0.96361919       0.12741323
I        7.02140953       6.80341592       8.71417067      -0.49303385       0.06048780       0.05968909       1.63084684      -1.03772531      -1.82720027
I        2.78496961       4.48945217       5.78157248      -0.00125760       0.20755372       0.06020342       1.60384238      -0.00810400       0.36513222
I       14.95199235       9.77080869       8.64148229      -0.03445465      -0.06832109       0.14322961       0.17867887       0.39026866      -1.30145633
I        4.85161944      10.17895977       6.73516077      -0.20892401       0.19894063      -0.08125214       2.45833217      -0.39638558      -2.56723620
I       12.54372446       4.18146885       9.05297463       0.30230867      -0.31823568       0.05521249      -1.11438424      -2.48087519       2.25290633
H        6.21857626       1.49415193      13.55304849      -1.09609573       0.12487963      -0.14006075      -0.20033646       0.06242190      -0.04601494
H       11.09355307      13.24656020      10.99587492       0.31758638      -0.74340080      -0.10893392       0.07467474      -0.02989099       0.11696100
H        0.83174557       7.24173373      13.37438681      -0.49128665      -0.32564153       0.06824499       0.03995602       0.02822569      -0.00432135
H       16.51674817       6.57024716      11.36540890      -0.03471227       0.09581920      -0.08407375       0.23440926       0.03922242      -0.03868692
H        6.09385379       3.37248463      16.80678283      -0.08999117       0.25686474       0.13662447       0.17222950       0.02108269      -0.06218554
H       11.34451750      11.46815536       9.53860576       0.04269644      -0.20143602      -0.04062138      -0.18169469      -0.03515824       0.09170533
H        2.74833248       6.72536758      16.77186238       0.04489003      -1.26090113      -0.62428127      -0.02236621      -0.16519607       0.22479461
H       14.71531540       7.69950634      10.44103386      -0.56183421      -0.52851443       0.19821272       0.14761716      -0.05766052       0.17274049
H        3.15199244       1.86057971      13.59484921       0.45846588      -0.54984131       0.15361199      -0.01033003       0.08545585       0.03825180
H       13.00844658      11.03237656      10.02783680      -0.28425100       0.27451729       0.41959045       0.05393188       0.02512478      -0.01939242
H        3.52853702       8.20259675      17.24101948       0.81282444       0.29975225      -0.27657919       0.07659778       0.13723644       0.07902501
H       13.65072329       6.17732741      10.57245855      -0.27837978       0.13941063      -0.17320444       0.16247130       0.04076062      -0.01331318
H        4.42268776       3.56615616      12.16487552       0.59268612      -0.72811696       0.54656326       0.11749130      -0.08705596      -0.09373819
H       13.64111089      12.22580400      12.41976527      -0.04974355       0.81958839       0.46856407      -0.12629226      -0.00640215       0.10861937
H        3.57747136       8.12533360      12.27306099      -0.62121825      -0.65995994      -0.10715892       0.13195956      -0.08537526       0.14420099
H       14.59563182       4.18113442      11.65028535       1.15610716       0.27840030       0.08816452      -0.02401737       0.07929416      -0.14277281
H        6.17179221       3.37269344      12.32677049       0.92517859       0.17913650      -0.45351969       0.03150881      -0.14058121       0.04034749
H       12.64382549      13.70141209      12.89267501       0.23547311      -0.35389722      -0.37208647      -0.03649384       0.01407938      -0.10923672
H        2.71707345       6.40602563      12.25734041       0.12496328      -0.21748071      -0.31356144       0.11601093       0.18335386       0.11645158
H       14.77347489       7.48959766      14.84657223      -0.01882875      -0.48685463       0.46901118      -0.03952811      -0.13396253      -0.26807860
C        5.18332431       1.93272462      13.29380041       1.24489730       0.29077444       0.52342460      -0.23127636       0.58201696      -0.29769213
C       12.00431209      12.56919336      11.13577371      -0.97601148       1.03458402       0.16769807      -0.71954239      -0.09454296      -0.08151852
C        1.72885601       7.88778907      13.24477905       1.22485862       1.07171267       0.05699761      -0.26226614       0.02940209       0.03229055
C       15.55694255       6.01625599      11.26090915       1.01861301      -0.39469848       0.27396839       0.35540593      -0.48646738       0.81970733
N        4.07691881       1.40297244      13.77682257      -0.43700957       0.67319573      -0.60061920      -0.44311142       0.23033278       0.13350959
N       12.14160871      11.57607477      10.23393531       0.03772135       0.24636184      -0.22907910      -0.11226423       0.36479688      -0.25331999
N        2.73730846       7.55116599      17.31000060       0.57031145      -0.06934386      -0.28101102       0.19483823       0.49001362      -0.65391735
N       14.52362053       6.70489431      10.78661369       0.13853090       1.14008057      -0.59899023       0.03205712       0.24675859      -0.05978126
N        5.26240515       3.07249286      12.63415148      -1.60924026       0.30711389      -0.26813603      -0.22495985      -0.50297403       0.46637190
N       12.84245214      12.90477629      12.20480327       0.62796277      -1.07155247      -0.19255496      -0.38947565       0.09612609      -0.44352607
N        2.76630201       7.39178612      12.59166244       0.17699028       0.91228170       0.52811103       0.10878810       0.53778653       0.12162215
N       15.54691298       4.66922295      11.60778934      -1.86636776      -0.35964391      -0.17817857       0.30166322       0.42859413      -0.36563259
Pb      39.95588438       2.36775478      11.93754238      -0.14887886       0.35943451       0.12158987       1.67117145      -1.87463757       2.35503377
Pb      17.70823739      10.92247895      13.91741379      -0.07742423      -0.02900989      -0.21900441      -2.01834420      -1.33565208       1.32933011
Pb       7.58045100       9.09647266      11.20513665      -0.09252104       0.07583780      -0.13088486       2.25650715      -2.60629019      -0.92419899
Pb       9.52361068       5.44484346      13.45096347       0.08963569      -0.07520434       0.01118502       0.72038435      -1.13130019       2.29338096
I       38.81364066       4.52523666      14.39355477       0.07008700      -0.17472072      -0.20187399      -0.62288551      -0.07869639       0.65050930
I       38.77002674       8.61358339      11.89918347      -0.09006570       0.06696563       0.09973928       1.08059456       1.82814589      -0.00316716
I        8.25369047      10.99536259      13.44605393       0.43769550       0.22617289       0.31283875       0.73044554       0.51597881       0.07232285
I        8.50061983       3.46574405      11.06344124       0.18061132       0.00924294      -0.07705779      -1.04982314      -0.08173836       1.16309147
I       16.71750638       1.36868879      11.29835721       0.10689668      -0.13856690       0.00051514      -1.00864884      -0.78883422       0.17463981
I        0.71779448      12.75028638      13.13528510      -0.05358687       0.08574011       0.03007566       1.95386810      -0.31321844       0.57025507
I       10.52919823       7.72454172      11.20698552       0.04935298      -0.19758758       0.02030537       1.85402927      -0.54888612      -0.33870931
I        6.62178226       7.03280417      13.46684685      -0.11210870      -0.26640821       0.02327903       0.35664901      -2.11204797       0.08456133
I        2.60027904       4.46134339      10.54985336      -0.03346234      -0.09994568      -0.04198392      -1.06670546       1.06907720       1.52635900
I       14.81820874       9.74001684      13.64380438      -0.09472505       0.16598897      -0.10916247      -0.50640360      -0.91409648      -0.12776052
I        4.57467947      10.31640791      11.47517598       0.08069402       0.04108324      -0.16568952       0.03852826      -0.14863815       0.74216193
I       12.43656458       4.24360937      13.98750976       0.04510313      -0.17963252      -0.21736882      -0.85758333      -0.83258029       0.41078645
H        6.04297275       1.56453140      18.07275745       0.67546421      -0.92490103       0.06087829       0.03175376       0.11558759       0.08596808
H       11.21310070      13.12548558      15.97468255      -0.53481133      -0.27777864       0.00329983      -0.20103291      -0.20138948      -0.06073129
H        0.83158948       7.17562739      18.03408935      -0.54495390       0.09962505      -0.18027642       0.01380023       0.01149814      -0.26758473
H       16.60876584       6.46975294      16.01717303       0.38678585       0.27032149      -0.14906279      -0.24904246       0.17789140       0.04680790
H        4.10436173       0.50865451      14.24817200      -0.03210480      -0.38616450       0.31152144      -0.13621817       0.19634836      -0.08499411
H       10.77495334      11.02455619      15.01431351      -0.07093947      -0.34003407      -0.23363940       0.15936672      -0.09293326       0.10066195
H        0.89610699       9.45241998      14.19946272      -0.70469829       0.36073510       0.50136547       0.06650691       0.11826412      -0.11297236
H       16.28537624       4.50528192      17.16703740      -0.18392946      -0.19232238       0.22261002      -0.18770979      -0.03699724      -0.13059960
H        4.33310637       3.74833288      16.96561487       1.00243640      -0.83111151       0.08682963      -0.04112115       0.20252351       0.01733264
H       12.42115150      10.42639549      15.17537526       0.75959323      -0.54963382       0.03119233       0.07351393       0.19026833      -0.22885420
H        2.58744191       9.78530134      13.80287898      -0.41951813      -0.37624876      -0.25349403      -0.11150037      -0.03488569       0.06828172
H       14.49924962       4.47880665      16.93102334      -0.18063871      -0.06228890       0.01215094       0.03118354      -0.01456116      -0.06957510
H        3.01752307       1.69295186      18.23127809      -0.61813080       0.71259489      -0.35691988      -0.04236212      -0.08543964      -0.16056108
H       13.94763445      12.18994630      16.56827639       0.22273932      -0.25694803       0.01588459       0.08403314      -0.05089768      -0.08105449
H        2.46016149       9.74078444      18.59848179       0.29361251      -0.14211889       0.12504319      -0.01705125       0.07815361      -0.10903945
H       13.67071203       6.20698634      15.30749760      -0.33341095      -0.41514765       0.16673155       0.03581878      -0.11063540      -0.04470652
H        4.10926661       0.51187996      18.78079906       0.02881692      -0.97754094       0.60973142      -0.13698823      -0.04766906      -0.06939615
H       13.07314248      13.69478302      16.86661166       0.21873167       0.38555718       0.36588122       0.02365328      -0.01908380      -0.04436605
H        1.34095237       9.47883279       0.35519486       0.02531353      -0.27686483      -0.08156050       0.03559527       0.09549431      -0.06060432
H       16.38180583       4.21335148      11.99272416       0.45084957      -0.15536649       0.51552104      -0.04128283      -0.03018189       0.09620017
C        5.07188636       1.99257777      17.85977094       0.52892447       1.81201938      -1.12328116      -0.23955045       0.13995911      -0.08331871
C       11.98141330      12.31606437      15.98243735      -0.75169168      -0.42611108      -1.06872040      -0.54039071      -0.23469556      -0.25843221
C        1.67446510       7.90727043      17.94596279      -0.30345762       0.42526504       1.12511236       0.39047379      -0.14548107      -0.64947987
C       15.61066448       6.02677779      16.04547413      -1.87876052      -0.75341937       0.09299502       0.21264503       0.15056489      -0.15624128
N        5.17312597       3.15403872      17.20975475      -1.26422479      -0.15701731       0.34562142      -0.16455141      -0.20084693       0.43830413
N       11.71140317      11.09547703      15.43714437      -0.95554734       1.31753662       0.33513698      -0.16685623      -0.37379096       0.14396884
N        1.73354879       9.18244551      13.71118042       0.77520443      -0.73031821      -0.49355508       0.19050392       0.06496347       0.19251663
N       15.42215110       4.90274568      16.75385501       1.05402500       0.50908958      -0.19614278       0.58722059      -0.16964661       1.04528613
N        3.98329687       1.36458808      18.26438187      -0.07185279      -0.01903390       0.35971199       0.03434712      -0.51329254      -0.46759039
N       13.09041597      12.73446181      16.49672955       0.87843312       0.29636122       0.45418191       0.35560293       0.24728438       0.28504985
N        1.66076314       9.03736158      18.61207000      -1.04876710       0.69258011       0.15937259      -0.08541392       0.36672359       0.06529793
N       14.59435378       6.62501851      15.42390451       1.12862048       1.23850628      -0.60761335       0.23556547      -0.16319169       0.01217658
Pb      -0.30843741       3.28745349      15.24078310      -0.31667258       0.08660093       0.12394299      -1.66397954       0.34109437      -4.70050945
Pb      17.49570844      10.98299844      18.41074513      -0.02692266       0.05805880      -0.17831374      -0.21370527      -1.95771184      -2.16250518
Pb       7.41622567       8.94599251      15.91230865       0.26429043       0.15856481      -0.06244889       2.30813500       0.87632910       0.13222135
Pb       9.47909704       5.47771576      18.17428661      -0.00956363      -0.07181508      -0.06763134      -1.46340892       0.66591673       0.92014236
I       38.74010649       4.54722011      18.99557422       0.23534411      -0.32275579       0.02597906      -0.40376642       1.18837173       2.43463899
I       38.79796816       8.36900384      16.78003980      -0.17400654       0.32131092       0.08888819      -0.56176547      -0.82673584       0.87773331
I        8.50257798      11.02433436      18.28707480      -0.09257092       0.05060408      -0.12989897      -1.32480898       1.01617481      -0.60812295
I        8.54770054       3.37617591      15.82156153       0.05459966       0.03509297      -0.01558567      -0.69278161      -1.21300651       0.62054496
I       16.51622534       1.55866127      15.70119081       0.26965396      -0.30038971       0.25670830      -0.72710352      -0.17846520      -1.22681790
I        0.52177286      12.84729963      17.89308160       0.00654366      -0.10778188      -0.11486463      -0.47523838      -0.17214592       0.06418032
I       10.50396465       7.48698036      15.70791645      -0.00053729       0.07968222       0.16699540       0.14244714      -0.96361919       0.12741323
I        6.75310894       6.75095784      18.07759228      -0.49303385       0.06048780       0.05968909       1.63084684      -1.03772531      -1.82720027
I        2.51666902       4.43699409      15.14499409      -0.00125760       0.20755372       0.06020342       1.60384238      -0.00810400       0.36513222
I       14.68369176       9.71835061      18.00490390      -0.03445465      -0.06832109       0.14322961       0.17867887       0.39026866      -1.30145633