768
Lattice="32.0609120611585 -0.5112882221814271 -0.5475189371990378 0.2896562838185469 31.11650681404145 -0.5358671673453327 0.3216333527679892 0.2519783857508381 17.761452272036312" Properties=species:S:1:pos:R:3:forces:R:3:momenta:R:3 energy=-3644.753820941244 stress="0.0 0.0 0.0 0.0 0.0 0.0 0.0 0.0 0.0" pbc="T T T"
H        2.78599628       2.64769675       3.37335760      -0.07392353       0.93996588      -0.67044970      -0.06563597       0.04785479      -0.14085058
H        2.79062338       3.30300834       5.68345089       0.01364952      -0.35336701      -0.13248126       0.16422870      -0.14899738       0.13823152
H        3.12359796       1.67018189       6.22996366      -0.02643834       0.10934144      -0.17649811      -0.05726814       0.07259255      -0.11532679
H        3.58363798      31.05303978       3.98887791       0.00948786       0.22068429      -0.16128398      -0.01934772       0.05725241      -0.04140595
H        2.99814803       0.41585922       2.80906088       0.29177817       0.03271427       0.21696723      -0.08182216      -0.00202292      -0.01827956
H        7.18958783       3.19346852      16.52575499      -0.07504582      -1.00286854      -0.30096708      -0.05357463      -0.13490970      -0.04804388
H        6.90729630       2.20896662       1.11727605      -0.05507297       0.79118986      -0.50814840       0.08798829       0.02332655       0.02020207
H        6.50464367       3.82115437       1.62176538       0.02957884       0.88612071       1.08945824      -0.10546560       0.09463781       0.02484268
H        6.53502164       5.93847455      17.57665064      -0.04956110      -0.50466798      -0.34214230       0.00436560      -0.02344996       0.16578324
H        6.56014652       5.17216240      15.94438694       0.03310014       0.53206655       0.04020058       0.17799588      -0.13653843       0.05181930
C        2.99471935       1.94676902       4.15573002      -0.06660365      -1.14374499       1.95709140       0.33484451       0.06881995      -0.26450855
C        6.98015381       3.86961641      17.35689587       0.02239496       1.27018855       0.77462787       0.17753561       0.57335955       0.43302338
N        2.97306708       2.31672623       5.43927856       0.00694594       0.69894499      -0.43913739       0.26309556      -0.23454389      -0.26722685
N        3.25104407       0.70083901       3.82645276      -0.29832535      -0.38194658      -0.52534442      -0.11169996      -0.07318865      -0.50931228
N        6.75133843       3.21067888       0.85172422      -0.04636735      -1.37733187      -1.15914289       0.60994855      -0.03575548       0.24594673
N        6.68199181       5.10600331      16.96255316       0.09343219      -0.53669604       0.48600293      -0.17016814      -0.38122417       0.09851342
Pb       5.19779885      30.34397121      16.75541415      -0.00426963       0.02231354      -0.05682552       1.70293566      -0.81358535      -1.07325741
Pb       1.09564541      30.56506405      17.37250205       0.32890757      -0.15809672      -0.01133633       0.12437679       1.53427983       0.95364669
I        6.76120284      -0.22625767       2.02538476      -0.16798519       0.05804356       0.09929352       2.00301856       0.41334441      -0.51946919
I        1.62650237       5.38387242       2.05937387       0.14273472      -0.05185467       0.08889788       0.73114677      -0.86058856      -0.73016954
I        6.66726903       0.59580208       6.75751818      -0.07012710       0.04710404      -0.35686968       0.53285736       1.04092663       1.74496113
I        1.98777207       5.97462847       6.38831237       0.11435065      -0.26202798       0.26400295      -0.34377362      -0.55576375       1.08857171
I        6.06702508       4.22649593       4.24767746      -0.17307884      -0.11869365       0.03788293      -1.51082393       1.20717442       1.36741607
I        3.06964163       1.82965866      18.04209529      -0.07944003       0.04315100      -0.04127621      -1.52534574       1.01940481      -0.56702342
H        2.38445685      10.77140064       0.42567804      -0.03782717       1.53958107       0.67852798       0.03721708      -0.07775395      -0.06970958
H        2.13607186       8.78018687       1.32115943      -0.19897846      -0.40510027      -0.41992631      -0.03748608      -0.18794847       0.07922767
H        2.45511187       8.21860710      17.43699557      -0.19444405      -0.38285498       0.37607852      -0.20819050       0.17127880       0.15791845
H        2.73551436       9.60743183      15.53290597       0.02960263       0.68599577       0.16218971       0.02923328       0.06325251       0.02348262
H        2.85197716      11.39900383      15.78811352       0.02619179      -0.00554558      -0.04400526       0.03790935       0.16963822       0.04633155
H        6.22134671      10.32508764       4.65718847       0.18136285       0.86480076      -0.16249214       0.11544807       0.01803175       0.14995111
H        6.59727172      12.49730862       5.68586356      -0.07107127       0.21313151       0.08189364      -0.11277646       0.01072679      -0.00637115
H        6.53343683      13.36724858       4.09544301      -0.05902312      -0.73711800       0.70031132       0.03731026       0.15012883      -0.10666005
H        6.26683058      11.92946485       2.04322135       0.03625656       0.37818319      -0.27300286       0.02464333       0.13024371       0.03189354
H       14.66776852      12.74794772       5.41867218       0.25546775      -0.11661408       0.64223909      -0.04034114      -0.05404473      -0.13287763
C        2.61049814      10.25097343      17.48624080       0.12962447      -1.99413448      -0.54201815       0.25215179       0.11268659       0.09886572
C        6.30558137      11.32110767       4.07667074      -0.62758038      -2.02274215      -2.06393348       0.82000830      -0.55602328      -0.14743950
N        2.08748000       8.80095089       0.27480288       0.40200623       1.04624733      -0.24517030      -0.39151509      -0.09967261      -0.19261813
N        2.77068913      10.44319678      16.18341194      -0.20133101      -0.51448491      -0.15231446       0.51345226      -0.27204534       0.41605133
N        6.42585649      12.47981769       4.66155278       0.48184345       1.76949549       0.12889553       0.33967300      -0.52543351       0.03566902
N        6.19553983      11.17150187       2.72574646      -0.04870900      -1.27771235       1.45122569      -0.04429062      -0.17448826       0.05221039
Pb       3.87074089       6.81796724       4.03502889       0.17184801      -0.08880568      -0.30716100       1.26408278       1.61239457       1.59987868
Pb      31.88675954       6.49398681       3.60654302       0.08283760      -0.21906456      -0.12757023       6.14528130       2.49541798      -3.12808566
I        5.88556704       8.15028507       6.06948423       0.01244574       0.10577696       0.12484025       0.08740428       0.05430015      -0.30497013
I        2.69025089      13.37058614       6.20991889      -0.14785627       0.06456697       0.08973937      -0.73218267      -0.65492351       0.34835605
I        6.09249573       7.84069255       1.69425620      -0.19380812      -0.26086618      -0.13616363       1.64935344      -0.17162002      -0.80769131
I        2.80954597      13.15363223       1.93674712      -0.12394758       0.06784691      -0.17923356      -0.73914787      -0.40438363      -0.32285204
I        6.93808002      11.92541025      17.06407877      -0.03411505       0.00372209      -0.27392240      -1.87352669      -0.50590390      -0.67905296
I        2.11665337       9.40209516       3.77392743      -0.12642223       0.04759801       0.05686800      -0.66289795       1.02408392      -1.39602559
H       10.20774061       2.68499434       3.11307839       0.06421384      -0.15745195       0.08001465       0.13967634       0.07111639       0.01031258
H       10.45167425       3.24637712       5.30649534      -0.27070752       0.87433280       0.53135322       0.06327140       0.02322837      -0.06736374
H       10.47298106       1.62377396       5.97843064      -0.20033921       0.33533856      -0.78469588      -0.05072691      -0.13115289       0.12145940
H       10.52494091      30.92519871       3.53844550       0.08389859       0.30741690       0.00814601      -0.03310472      -0.00886039      -0.03202451
H       10.09837366       0.37291453       2.42279646       0.18091028       0.38303891       0.66766514      -0.03257845       0.16656211       0.11160331
H       14.50339649       5.21364780       0.01268473      -0.25003376      -0.23375113      -0.02213568      -0.06494344      -0.39927647      -0.04808190
H       14.51983460       5.36873587      15.49026971      -0.00192094       1.27260249      -0.66582805      -0.01793360       0.10758963       0.08719474
H       15.07330064       3.61458466      15.41420080      -0.44676825       0.11005292      -0.56088662      -0.00797156      -0.18546947      -0.05478051
H       15.20052963       2.46701793      17.59483211       0.07807358      -0.78611420      -0.27858529      -0.10873651       0.08178073      -0.13087206
H       14.73058431       3.20707428       1.28906604       0.16918784       0.01804696       0.77363197       0.08087611      -0.00173029       0.12613626
C       10.26858092       1.86812918       3.85009715      -0.32712112       0.56805415       1.79363332       0.38051652      -0.22839502       0.54270636
C       14.90576707       4.46830394      17.25429289      -0.08860432       0.15547158       1.91584011      -0.19046226      -0.18326166      -0.25256650
N       10.28983674       2.23342429       5.14451709       0.61730916      -1.05973710      -1.10832603      -0.00340766       0.40212337       0.69361787
N       10.25405691       0.62700358       3.44028407      -0.07826928      -1.34461683      -0.98171061      -0.02187019      -0.30367620       0.74418928
N       14.77170789       4.49976665      15.94070585       0.59908702      -1.82899553       0.26038868      -0.11323646      -0.22755588       0.39672403
N       14.80844962       3.12988655       0.27341165      -0.17794075       1.26296751      -1.20027330      -0.41017379      -0.57801269      -0.02617623
Pb      13.33492796      30.28022656      16.86847529      -0.11672640       0.07739660      -0.07120379       0.89678432      -1.93160762      -0.94504297
Pb       9.25017520      30.17333209      16.96420589       0.28961943      -0.09162353      -0.12679696      -1.11344956      -1.86291240       0.84467293
I       15.09264305      30.85389687       1.39551989      -0.04858197       0.06790594      -0.00404221       0.03708420      -0.29455271       2.23313718
I        9.86395543       5.24699826       1.90509010      -0.01883928      -0.12730445      -0.13933189       0.56826547      -0.19561398       0.02050654
I       14.58059099       0.26529592       6.25101858       0.05199766      -0.02287797       0.23698981      -0.66110599      -1.49169934      -0.65830802
I       10.31210836       5.71917449       6.21858869      -0.14887474       0.10567597      -0.01194780       0.44400796      -0.55835480      -1.49732704
I       13.75170680       3.78942220       3.95455623       0.07488514       0.07924780       0.00690881      -1.24114864      -2.37456877      -1.83144739
I       10.70072306       1.43253399      -0.11985228      -0.13165169      -0.15778663       0.05128153      -1.40213508       0.00992826      -1.72788670
H       11.03467029      10.31573204      -0.10475023      -0.42191953       0.48861737       0.08472838      -0.06036941      -0.13032558       0.09568144
H       10.71131866      10.85071176      15.24912808       0.24318267      -0.14912396      -0.32836454      -0.18525053       0.10216585       0.06654512
H       10.36975730       9.06032621      14.97330674       0.23969133       1.41594939       1.28455231       0.05258852      -0.10264875       0.13083358
H       10.54141415       7.69422261      17.07013765       0.09886287       0.99536132       1.02076472       0.10063058      -0.05472468       0.07196970
H       10.62783416       8.27599530       0.91003035      -0.01763424      -0.22583579       0.57091281       0.11080779      -0.00588075       0.04201339
H       14.59081515      10.52993149       4.60527364      -0.16095295      -1.03124028       1.03880821      -0.11942089      -0.04209809      -0.06442074
H       14.19898811      10.14642724       2.39273537       0.08451052       0.28575691      -0.20251016      -0.04551317       0.33820715      -0.25096508
H       14.28964632      11.85617490       1.97610486      -0.13143969       0.29179332      -0.47142231      -0.06992932       0.05554821       0.00651427
H       14.55991508      13.40820121       3.82357990       0.06687931       0.27171251      -0.23955829      -0.03450379       0.17951433       0.01740419
H        6.09455005      10.17974661       2.34146288       0.18716221       1.09550057       0.16654182      -0.15501328      -0.03254142      -0.04663939
C       10.93195408       9.72381974      17.01323723       0.94303361      -0.05742683      -1.05389326      -0.72553826      -0.36289567      -0.22059403
C       14.52150261      11.36199669       3.95208961      -0.10629613       1.16548467      -0.87943800       0.37489111       0.24611959       0.23692534
N       10.74699685       9.87353913      15.64791903      -0.67551916      -0.93599864      -0.34512852       0.07687093       0.43616851       0.29824371
N       10.52641866       8.31201109      -0.11555411      -0.46455759      -1.55161900      -1.22871683       0.73756418       0.21409768       0.09245490
N       14.24672846      11.13819595       2.68443254       0.14545342      -1.24984703       0.24773469       0.98963295       0.01487041      -0.31113361
N       14.68385631      12.57194332       4.42328732      -0.16155833       0.15844508       0.11434881       1.06306964       0.91454887       0.06708245
Pb      12.07575915       6.71961404       3.77370537      -0.13535585       0.03419257      -0.04594149      -0.41784198       1.19527736       2.46084938
Pb       7.96180507       6.70673374       3.92901347       0.35386999       0.23243536       0.13521689      -0.60944764       1.30421769      -0.99717406
I       13.96656843       8.13117574       5.95154789       0.08447459       0.00339801      -0.14477866       0.12121204       0.65742751       0.27507278
I       10.79531785      13.42040704       6.17361929       0.16506706       0.37850325       0.12250083      -1.43762131       0.21966406       0.43000348
I       14.15752267       7.50726579       1.32239516       0.05239044       0.15243427       0.26552400       1.10964160      -1.30082665      -0.56873951
I       10.99346698      12.80595768       1.63642201      -0.04728117      -0.10299872      -0.28646757       1.82667422      -1.41892883       1.72426547
I       15.28617006      11.90469516      17.08188062      -0.04754147      -0.28634154      -0.23052492      -0.26550518       0.32180014       2.19218435
I       10.09751499       9.27925781       3.41247209      -0.00818477      -0.21200846       0.09294506      -0.40692912      -0.51818167      -0.19416885
H        2.61121532       3.09452978      12.36151140      -0.08902045      -1.05663512       1.48470774       0.01797686       0.07236501       0.00376783
H        2.56490068       3.60721211      14.80299846       0.17374147      -0.33194085      -0.17006125      -0.00689519      -0.00421927       0.07128568
H        2.54643083       1.91025321      15.18160633      -0.01837060      -0.91606932       1.07694563      -0.24201432       0.13736377      -0.03191366
H        2.74352149      31.30089436      12.89284455      -0.23982895       0.20287824      -0.36278815       0.25339376      -0.05096002       0.11026755
H        2.37196719       0.90251287      11.76406005       0.19077274      -0.79083794      -0.43441722       0.13364513       0.06419250       0.24543417
H        5.90645266       2.91307831       7.76627859      -0.00645764       0.23793979       0.49628542       0.05167410       0.23625996      -0.05719713
H        5.91175703       2.49434232      10.06011021       0.12572642       0.43656579      -0.17507075       0.01593745      -0.08880062      -0.07657759
H        5.99057067       4.20184802      10.47664765      -0.05872287       0.54517335       0.60206559      -0.23901516      -0.10584776      -0.04896695
H        5.70173547       5.89721036       8.29554977       0.24826451      -0.58544003      -0.69272705       0.18262639      -0.08326243      -0.12466690
H        5.76469901       4.90516912       6.74274761       0.07246454       0.31954412      -0.42375445      -0.00561946       0.05054713      -0.12346450
C        2.53644186       2.28135169      13.18348920      -0.54691941       0.61349536       0.24087844       0.24680541      -0.06173473       0.20693361
C        5.88228706       3.79876951       8.44958134       0.21033696      -0.61797096      -0.33796497       0.13761701       0.25744277      -0.34649210
N        2.54706453       2.60993107      14.48221056       0.02318228       1.72393343      -1.69455410      -0.61156570      -0.11703513       0.25186313
N        2.36203775       0.98651666      12.77591026       0.46546444       0.51515549      -0.24250370       0.11116152       0.05903078      -0.27020437
N        5.94262723       3.49977658       9.75840104      -0.33081407       0.07411041      -1.60792705      -0.82315024       0.37075104       0.09568734
N        5.86193193       4.98240608       7.77469247      -0.11014688      -0.42674227       2.34192669      -0.26820836       0.03984278      -0.26682914
Pb       4.89353597      30.12979253       8.12911508      -0.01363868      -0.09447389       0.16661151       1.37303520      -2.41525744      -3.05570997
Pb       0.83366241      30.08583553       8.26451031       0.36651779      -0.06038383       0.08431206      -0.48183187       1.39603691      -1.49029543
I        6.82968489      -0.04329908      11.09075421      -0.17944147      -0.11725996      -0.04946552       1.18050929      -0.43026541       1.25551796
I        2.11117945       5.46683431      11.01253157      -0.03119385      -0.09934765       0.06389331       0.00666884      -0.12408295      -0.07895006
I        7.34347532       0.50517109      15.29494897      -0.15317461       0.03657771       0.06955247      -0.04519926       2.08866410       1.19024792
I        2.35745710       6.14315497      15.55253310      -0.16082698       0.05133270      -0.04931744       0.50891972       1.74614034      -0.41574013
I        5.94781494       4.22359306      13.51857586       0.16256597      -0.04586259      -0.13913573       1.61542936      -1.76544985      -0.55774062
I        2.50483731       1.46691264       9.10857152       0.06959762       0.25786379       0.00083520       0.26598989      -0.31426035      -0.66954982
H        2.83054967      10.46162188       9.38311903      -0.06125278      -0.36037860      -0.01149288      -0.10182425      -0.00412046       0.14448868
H        2.29486605       8.31171532      10.20650228       0.11016007       0.11024246      -0.09323495       0.16101553       0.08476117      -0.03221916
H        2.27934809       7.60103964       8.57834422      -0.00060322       0.20388536       0.26339594      -0.00584504      -0.01819714       0.19808877
H        2.69110366       9.21534071       6.66719215      -0.04538715       0.41136649       0.56558315      -0.13298641      -0.15159015       0.01074283
H        3.03702203      10.83110432       7.04348059       0.02347142       1.88539071       0.18657546      -0.03924320       0.03545641      -0.07247353
H        6.48372473      10.65095773      13.61352899       0.05555115      -0.18722181       0.48546581      -0.10716728      -0.05157749       0.07527397
H        6.69502114      12.94297264      14.08287432       0.08546906       0.04022689       1.90477436       0.09908356      -0.15165663      -0.09227890
H        6.44598212      13.47366795      12.50984915       0.21527743      -0.10240054      -0.36333543       0.14896377      -0.07449392      -0.05355736
H        6.44135096      11.41788139      10.75256153      -0.03686827       0.46533712      -0.73520526       0.01001537      -0.21032421       0.08952275
H       15.74408791      12.56408265      14.31654074      -0.07887451       0.23311421       0.70982108       0.10360144      -0.11199560      -0.01243587
C        2.68366044       9.61004824       8.68411216      -0.08184442       1.30058719       0.47033503      -0.27918137      -0.02896197       0.07699635
C        6.47808140      11.38459901      12.81270185       0.19952521       0.39973547       0.14525094      -0.51975198       0.32384427      -0.00054208
N        2.41531859       8.42570210       9.18858446      -0.04021742      -0.34364791      -0.57584086      -0.23964330      -0.17845692      -0.35742617
N        2.74572750       9.94036831       7.41341493       0.02807461      -3.10144020      -0.84833860      -0.66231596       0.01773901       0.27590828
N        6.59204542      12.66841134      13.14902737      -0.46394972      -0.41804507      -1.86109885      -0.45603353      -0.06880394      -0.05723356
N        6.37150475      10.87149937      11.60277720       0.03468884       0.45297881       0.84237107       0.78410324       0.96137149       0.34755498
Pb       4.14718960       6.75694115      13.11723855       0.01785231       0.50726913      -0.11014184      -0.00043305      -3.37363422      -1.15142858
Pb      32.14656797       6.57541663      12.55604973       0.19184195       0.01183631       0.05893307      -0.05392603      -1.56258225      -1.42321467
I        6.28538742       8.25113650      15.22071240      -0.04467973      -0.06353883      -0.36694267      -1.55241827      -2.86435282       1.90907619
I        2.86076766      14.04391023      15.08665602      -0.08147094      -0.07899896      -0.04531179      -0.83626211      -0.15200959      -0.83777400
I        6.22478338       7.62351887      10.41710254      -0.15914459      -0.22622158       0.26418040      -0.97754659       1.09593010       2.25093093
I        2.76859500      13.13698947      10.65662019       0.07044568      -0.05727797       0.01687074      -0.46582001      -2.18733098       2.14360086
I        6.87330648      12.16530721       8.32317684      -0.03898295      -0.32549494      -0.12717085      -0.91228163      -1.72054536      -0.86629315
I        2.22940174       9.55644825      12.52687524       0.07702497      -0.31844555       0.29773007       1.35201154      -0.63997537      -0.22085566
H       10.80346970       2.67264527      12.08671131      -0.16661478       0.16436483      -0.43985341      -0.05694559       0.14722596       0.15032951
H       10.55902011       3.14160157      14.33962277       0.00202352       0.71849804      -0.23254677      -0.04394871       0.06241441       0.13790747
H       10.54772951       1.50481621      14.77038428      -0.01396817      -0.76176582       0.76752572      -0.10347920       0.02765700       0.05884738
H       10.97384075      30.82578347      12.28278610      -0.08831365       0.44904780       0.00464306       0.01193381       0.15775939       0.25769977
H       10.74433411       0.50197716      11.21994305      -0.00580047       0.33450278       1.09906156      -0.14054222       0.02997729      -0.08495739
H       13.86521297       4.80521105       9.70231210      -0.30120116       0.51845493       0.21552738       0.15186787       0.02609118      -0.16334341
H       13.98498777       6.20123435       7.61354155       0.41114794      -0.92358296      -0.13609594      -0.03825904      -0.01402766      -0.00538222
H       14.25271398       4.64326182       6.66189456      -0.03368908      -0.17258315      -1.52057180      -0.07960466      -0.03934037       0.05286803
H       14.07483771       2.25411014       8.04325114      -0.08097579       0.09231624      -0.04864930       0.04611652      -0.09539317      -0.09291591
H       13.66561893       2.58840749       9.78921625       0.29792183      -0.46242512       0.40148856      -0.00132777      -0.11422404       0.10696242
C       10.70833455       1.83297594      12.78715172       0.13506649      -0.62466100      -1.28025383      -0.08979967       0.04142984      -0.14445048
C       13.96093517       4.29293599       8.69099475       0.06061773       1.35478599       0.03363477      -0.04621505       0.51761760       0.70045994
N       10.57879030       2.17492872      14.02664360       0.07267629      -0.30892833       0.65992152      -0.30698288       0.02368492      -0.06952527
N       10.72368037       0.59800618      12.27043344       0.02974486       0.15160175      -0.58268822      -0.49138731       0.00500869      -0.19914717
N       14.21069356       5.13192431       7.54293845      -0.41952600       0.32147634       1.08817249      -0.28275103       0.18755101       0.09397675
N       13.91580877       2.94360073       8.81249301       0.12586110      -0.95732721      -0.07651157       0.09839105      -0.00566188       0.22499326
Pb      12.91655893      29.88116867       7.95635606       0.05357415       0.17575497      -0.20961345       1.87700243      -2.42761897      -2.55725718
Pb       8.85487920      30.02931962       8.10722434       0.17799171       0.14935934      -0.15220071       0.29846770       0.03061100      -4.27043566
I       15.14459430      30.92053514      10.19813538      -0.03721472       0.12413835       0.20434019       1.67819896      -0.27833629       1.39487922
I        9.74907290       5.12191378      10.67969337       0.13353043      -0.02137622       0.01425698       0.01722684      -0.86476140      -0.27711123
I       15.15390149       0.90877734      15.39721584      -0.14778196      -0.11963846      -0.10265343      -1.28116825      -2.19418979       1.63817699
I       10.50197907       5.71518350      15.07477651      -0.25054637       0.06187878       0.03913390       1.96938369      -0.41825698       0.83599086
I       14.01983091       3.82855496      12.44249522      -0.16876242      -0.08740851      -0.03758423      -1.11447413       1.16361140       1.21290218
I       10.67242526       1.40242420       8.75266547       0.04329966      -0.02207482      -0.00760780      -1.13782297       1.32968319      -0.67959809
H       10.33604297      10.59223949       8.99741486      -0.12386005      -0.06542879      -0.01433286       0.12800304      -0.06965707      -0.11130589
H       10.22887233      11.16635308       6.70875836       0.01414069       0.47587259       0.14143276       0.02220069      -0.08244483       0.05532874
H       10.30893380       9.51238217       6.17386241      -0.08019188      -0.04256312       0.33267820      -0.04257068       0.11219730      -0.00724780
H       10.51082289       7.76856887       7.96840666      -0.06608180      -0.60115858       0.20559442       0.07497309       0.16567158       0.01331391
H       10.51489244       8.29150007       9.68972897      -0.03687876      -0.06327871      -0.05287821       0.16896844      -0.07478712      -0.12660793
H       14.56972812      10.52441381      13.77946470      -0.30275270      -0.10545466      -0.21859868       0.02199762       0.20368115      -0.03536231
H       13.90099688      10.02072799      11.54499500       0.07229331       1.27783701       0.04867868       0.05105992      -0.12855202       0.10961051
H       14.43496347      11.65291361      10.95285985      -0.04875093      -0.07644881       0.12434906      -0.02635529      -0.12732653       0.17393515
H       15.52012683      13.25182328      12.74370298       0.07300781       0.29004684      -0.40541560      -0.32478054       0.05915983       0.07956910
H        6.29706440       9.85424462      11.49956744      -0.05839342      -0.43345184      -0.23380537      -0.04020320      -0.04013519      -0.01194530
C       10.33182006       9.77633863       8.25702632       0.59844580       1.41350930      -0.76919095      -0.77630758      -0.39086773      -0.02572045
C       14.66052763      11.29190463      12.99830592       1.08071218       0.89021854      -0.89142168       0.10927253      -0.25799562      -0.08181056
N       10.22870729      10.17401725       6.97535671      -0.02367870      -0.70283457       0.17826499      -0.46758274       0.47177283      -0.42918287
N       10.50976155       8.50655129       8.68421611      -0.31735458      -0.60129445       0.00709869       0.09637516       0.23246808       0.22433566
N       14.21150003      11.02517904      11.75620914      -0.36165050      -1.71697064       0.44942069      -0.25951223       0.76571977       0.78381416
N       15.40713901      12.44875707      13.35081754      -0.44219654      -0.63509857       0.07817471       0.04791029      -0.64425565       0.05441825
Pb      12.12365052       6.48225211      12.46711231      -0.14987678       0.18716315      -0.05821629       0.82811797       0.20251337       3.20640663
Pb       8.08796973       6.73672005      12.85043868       0.13417639       0.06420563       0.09419308       0.59555368      -2.92348225      -2.30415264
I       14.06896796       7.98403818      14.61811769       0.00437174      -0.14859557       0.09410482      -1.27494704      -0.84464504      -0.77214976
I       11.17940229      13.28457920      14.72625650       0.00080510       0.09782040       0.00668849       2.16294755      -0.18799180      -1.49289661
I       14.14196107       7.72052759      10.22304225       0.07298167      -0.07195107       0.06756082      -0.72480722       0.40896009      -2.04305775
I       10.70110696      13.15467981      10.62893723       0.07272481      -0.06909892      -0.14645756       0.26810236       0.46123973       0.69555217