768
Lattice="40.227587415121015 -0.7682833808457515 1.3263590934115383 0.394859312395313 23.52400323722727 0.25591382290307674 -0.5366011814355014 -0.10491616676151522 18.726843227480614" Properties=species:S:1:pos:R:3:forces:R:3:momenta:R:3 pbc="T T T"
H        7.41756357      22.95361289       3.27735387       0.36717814      -0.16658267      -0.00661479      -0.01868765      -0.00155609      -0.08479625
H       12.12981985      11.73385786       1.79078900      -0.37675028       0.59560483       0.24630159      -0.13920494       0.05405193      -0.03803662
H        1.61541278       6.31085461       3.09524663       0.41667070      -0.44916578      -0.06968669       0.12594074       0.08345986       0.00863790
H       17.31183760       6.04458986       1.50194152      -0.42969503      -0.58303979       0.12180123       0.14029872      -0.01344412      -0.01058488
H        7.41867034       1.63187609       6.77374813      -0.46820475      -0.13849952       0.41263911       0.06538461      -0.04050228       0.22080913
H       12.33015503       9.74514980       0.58817350       0.18002952       0.06428833       0.02044013       0.06101401      -0.27387651      -0.16424678
H        3.80779834       5.40489759       6.75993699       0.38364505       0.37621690       0.25201963       0.10346235      -0.11735532       0.16824500
H       14.76975147       6.30155994      19.17344834      -0.13210465      -0.42382466       0.36282703      -0.00674922       0.07377036      -0.06613106
H        4.50034278       1.02092735       4.21873111      -0.58455743       0.41341062      -0.24857994       0.05704816       0.02145507      -0.00353247
H       14.05757280       9.59807235       1.01824968       0.07830022      -0.17501752      -0.26373896       0.31958624       0.09885574       0.18322813
H        4.75986901       6.75195088       7.40540651      -0.24999219       0.11426063       0.03132576      -0.05755687      -0.07106883       0.03336712
H       14.42237102       5.17154136       1.50154216      -1.00399515      -0.39553922      -0.20061982      -0.06466863       0.18875713      -0.23217075
H        5.96984366       2.54950668       2.85987937       0.45924955      -0.34633995       0.25093604       0.03225772       0.14463566       0.02636275
H       14.90883840      10.99583388       2.53170213       1.25721760      -0.22564482       0.26882498       0.33184017      -0.00953148      -0.00849716
H        4.52802398       6.73309728       2.34253429      -0.33270231      -0.23549721       0.14762953      -0.04083839      -0.09734659       0.19144089
H       15.79396474       3.94333168       3.14429815      -0.41610946      -0.27572490       0.25232880      -0.04498705      -0.19276028       0.00096705
H        7.62540082       1.86710059       2.55895011      -0.12882701       0.00741434      -0.29769745      -0.05692279      -0.08965856       0.02407803
H       14.13025346      12.56836229       2.93807444       0.04003112      -0.49544670      -0.00806273      -0.07040004       0.07869551       0.07874164
H        3.52809004       5.34712046       1.86508690      -0.16874328       0.67269477       0.48822735       0.03377159      -0.22669614       0.10560795
H       15.65445273       6.45460069       5.40863241      -0.02858157      -0.43533539       0.55044736      -0.02110163       0.16160610      -0.02384827
C        6.30900238       0.36067516       3.20277249       0.09275426       0.76133892       0.10817569      -0.31198191       0.08431196       0.45832529
C       13.06633348      11.19097911       1.81509934       1.58286049       0.81739645       0.73342302      -0.10337360      -0.00303491      -0.30926568
C        2.65428693       6.73133517       3.13667854      -1.56520400       0.08834832       0.58238029       0.05846123      -0.10785944      -0.23390654
C       16.43476589       5.38710610       1.83143927       1.17500778       1.15544609      -0.05667998      -0.19692652      -0.23858088      -0.02698266
N        5.16161846       0.12058119       3.78274159      -0.06469378      -1.55085947       0.99840832       0.21765311      -0.18464886       0.55812424
N       13.17732467      10.14401305       1.05404710      -0.92800604      -1.36905620      -0.64273910       0.15580124       0.13504786       0.12180541
N        3.86694214       6.25355557       7.36306486      -0.54891039      -1.42946181      -0.47170956      -0.28310428       0.25021181       0.72052148
N       15.29695343       5.63662625       1.18599187       1.00437895       0.74819888      -0.14540915       0.22492861       0.15741456       0.09624417
N        6.66348359       1.69557392       2.89129819      -0.14802131       0.39910680      -0.36578692      -0.15596386       0.40647423      -0.00228412
N       14.11070175      11.59115569       2.54849117      -2.06022150       0.95483529      -0.37851153      -0.21591135      -0.10109350       0.08827362
N        3.61785582       6.23071118       2.44030732       1.83388967      -1.01190725      -1.50268858       0.22576841      -0.18837128      -0.07426396
N       16.59580962       4.50935028       2.85904354       0.62980770      -0.59287209       0.13992676      -0.99432247       0.25346051      -0.18447823
Pb       0.75831165       2.11284559       1.12673548       0.07089783      -0.11853149       0.05509801       0.42906165       0.96672441       0.71441210
Pb      18.68266133       9.75144683       4.28702054       0.19916643       0.11528488      -0.04422013       1.80115544      -1.77708627      -1.63398838
Pb       8.35703864       7.55869716       1.42399600       0.30304632       0.22023538      -0.21663878      -0.50852028      -0.20929882      -0.41555021
Pb      10.77063298       4.21561889       3.64473935       0.04878713       0.11798468      -0.03790489      -0.60148251      -3.01579150      -0.44039013
I       39.96929483       3.61547449       4.71074572       0.11184643      -0.26301744       0.03782582      -0.10704249       1.59137170       1.33821078
I       39.88488158       7.41135985       2.58167553       0.09988251      -0.15240760      -0.15272416      -0.57991864       0.53045306      -1.19705624
I        9.72754071       9.51761141       3.66395287       0.08089100       0.32247417      -0.00764094      -2.59858094       1.89477072       1.13723092
I        9.85688354       2.08142313       1.40222404       0.10285181      -0.09227465      -0.14965241       2.46477778       1.35117815      -0.21608010
I       17.81584727       0.21071382       1.69932653      -0.04904139       0.07315751       0.10226912      -0.22902963       0.58175845       0.24759169
I        1.56890594      11.54008909       3.53230881      -0.01118561       0.24419866       0.02222490      -0.82665762      -0.52636577      -0.58045200
I       11.69650198       6.21872715       1.38683079      -0.29227707       0.19491772       0.00096245       1.38765401       0.50460019       0.09986956
I        7.50367904       5.59184155       3.74601090       0.02338108      -0.23618069       0.00518464       0.90385788      -0.05182064      -0.06466201
I        3.75320007       3.01336193       1.02661152      -0.01636484       0.08686457      -0.08629135      -0.63893278       0.37586475      -0.36299097
I       15.84004820       8.49880724       3.87330506      -0.26325740       0.00989325       0.06332593       0.33572413       2.24920973      -0.49805383
I        5.55287332       9.24565890       1.54457550       0.17161259      -0.26803748      -0.06531532      -0.34719604       1.65395801      -0.66793904
I       13.69026139       3.22478427       4.00847441      -0.16282871      -0.34669712      -0.03364790      -0.98908474       0.88468665      -0.34462832
H        7.41601595      23.23162982       8.31015157       0.22666765       0.04465417       0.47789046      -0.13247451       0.02131006      -0.00265607
H       11.81690626      11.69209401       6.32056058      -0.71172021       0.14723790       0.12429313      -0.17354463      -0.02061559       0.01903544
H        1.90126212       5.98724782       7.86554944      -1.41298992      -1.01537745      -0.27696712       0.35416803      -0.01092736      -0.07222951
H       17.72626907       5.55020341       6.03343347       0.98727036       0.16374660      -0.09218972       0.14472655      -0.13032867       0.00127523
H        5.41145583      22.63802574       4.39084706      -0.03244521       0.60709588      -0.38843829       0.02622156       0.07142110       0.03733543
H       11.94476159       9.58410794       5.11378164       1.05474761       0.49693447       0.54451690      -0.00297391       0.01566602      -0.10100393
H        1.89970045       7.97830371       4.51127546       0.17303459       0.35909555      -0.00870712      -0.00453567      -0.10512837      -0.11455449
H       17.88479908       3.73660504       7.44902145       0.07755563      -0.17414825       0.15190524      -0.07426191       0.07358608       0.08420393
H        5.77422833       2.30201271       7.00813301       0.30881376      -0.63086529       0.35770668       0.02750197       0.02416919      -0.06483358
H       13.76877867       9.56531708       5.40413309      -1.04876193       0.51306952       0.08913392      -0.05438395      -0.03324626      -0.04374782
H        3.58001255       8.32455687       4.03206558       0.85316063       0.42835200       0.48546981       0.00569622      -0.01579212       0.26009370
H       16.05725787       3.56407266       7.67544735       0.60737762       0.43003644      -0.35689224      -0.19267429       0.11858403      -0.17842414
H        4.20070439       0.83497531       8.45849904       0.61384329      -0.13374384       0.18559544       0.10353834       0.31671143      -0.03938493
H       14.75652273      11.32618338       6.72866437       0.00246379      -0.18035262       0.05834374      -0.11997789      -0.16160726      -0.01835318
H        3.46575862       8.16679529       9.18224493      -0.39892411      -0.37110230      -0.47637533       0.02207727       0.09335743      -0.16027129
H       14.64002495       5.34717495       6.56000099      -0.44382377      -0.14341852      -0.31874263      -0.11914858       0.01948804       0.00703076
H        5.31921536      22.86226361       9.40168871       0.06820264       0.98178362      -0.52624175      -0.16682619      -0.08621050       0.16952093
H       13.75439725      12.62162485       7.31513178      -0.24337089      -0.34031374      -0.24705530      -0.09993403       0.03637326       0.11747211
H        1.77747920       7.72787181       9.28892008      -0.42342479       0.38268345       0.17376102      -0.11367959       0.17212938       0.00758602
H       17.52077906       4.27562275       3.30425845      -0.53956868       0.63879365      -0.61996197       0.05016394      -0.09016889      -0.05038994
C        6.23859153       0.50372676       8.03579440      -1.65909382      -0.20488528      -0.52305892       0.35875250      -0.59335662      -0.18400467
C       12.74508256      11.14840598       6.25321385       0.39757181       0.39088897      -0.01374656       0.06434480       0.40471039       0.94726843
C        2.75264014       6.56832224       8.00548382       2.48201821       1.55665352      -0.23491501       0.21716826       0.41309887       0.05642109
C       16.80724436       5.05984864       6.41467265      -0.83683291       0.84020169      -0.56753573      -0.38269424       0.01143716       0.13310261
N        6.48691438       1.56429958       7.27812752       0.35624872       0.54648340      -0.38844742       0.40463283      -0.10854121      -0.48868118
N       12.82439835      10.05173434       5.54525633      -0.04909604      -1.82086775      -1.13071530      -0.80912618      -0.45277676      -0.22715597
N        2.74694145       7.76344985       3.94908247      -1.17834868       0.17422319      -0.00639379       0.33978096      -0.88666175       0.15224892
N       16.92682170       3.99161688       7.14478884      -0.64980542      -0.90749823       0.87133863       0.18069232      -0.21073005       0.05066222
N        5.05074775       0.25379401       8.61987245       0.60905072      -0.49150936      -0.00509415      -0.13945197       0.07640662      -0.13492751
N       13.78850924      11.69316132       6.84251825       0.76410412       0.78033905       0.52190936      -0.23939062      -0.10328667       0.46307341
N        2.65224509       7.64906745       8.73868236       0.18326002       0.32447836       1.00669566      -0.35277536       0.67984285       0.27094095
N       15.61654849       5.65777996       6.11383788       0.06057474       0.34494863      -0.17000263      -0.10908794      -0.27293725      -0.93807944
Pb       0.72660759       2.17485426       5.71679031       0.18732580      -0.12882232      -0.18681609       0.91789611      -2.62598676       0.85456904
Pb      18.50677560       9.71817936       9.02924349       0.35576955       0.30242143      -0.23421599      -0.59655233       0.39220743       1.29732290
Pb       8.50516061       7.75899639       5.89807484       0.14049946      -0.01495481       0.38587460      -1.60153634       0.51858621       2.46659229
Pb      10.66763745       3.93488748       8.33530719      -0.03747496       0.43537111       0.18422725       0.75662865      -3.00520505       4.02525314
I       -0.04691960       4.19423225       8.06616146      -0.09526954      -0.01527785       0.02458129      -1.88544837      -0.24106055      -0.24752840
I       39.95103502       7.46780762       7.29728189      -0.13319552      -0.12211731      -0.04040235      -0.34371778      -0.58757581      -1.64307535
I        9.60364892       9.47851077       8.62939442      -0.04831367       0.07041172      -0.12787260      -0.27109344       0.66994550       1.62636807
I        9.75307899       2.23690806       6.03356874      -0.04848183      -0.43588664      -0.16338716      -0.44709126      -1.04440727      -0.87949568
I       17.84029466       0.25200196       6.25642778      -0.15902873       0.00075759       0.31593551      -0.52794683       0.34798979      -1.26214619
I        1.54920484      11.81427569       8.13167680      -0.06059120      -0.02312595       0.17190000      -0.59442435      -1.07033274       1.59413404
I       11.59830540       6.14916049       6.04740403      -0.02934787       0.12399835       0.10960441       3.41724095       1.22241023      -1.38195754
I        7.65512117       5.68565433       8.30418446      -0.21352372      -0.33457974      -0.07623431       0.21492217      -0.21782342       1.79285522
I        3.84800977       3.10736785       5.31852820      -0.26335319       0.07363832       0.09746836      -1.30892733       0.68125367       0.67047748
I       15.72849585       8.75414078       8.61342182      -0.25214609      -0.25610817      -0.01896508      -0.09636300      -0.42208241      -0.63351634
I        5.64487769       8.93548559       5.86164837       0.02964640       0.09174507       0.13303475      -0.96270990      -0.94103913      -1.38074735
I       13.60459363       3.05087658       8.63917682       0.14661687      -0.28169882      -0.07420402      -0.74976034      -0.00601600      -0.31144293
H        7.14926298      22.90115480      12.64077549       0.36717814      -0.16658267      -0.00661479      -0.01868765      -0.00155609      -0.08479625
H       11.86151926      11.68139978      11.15421061      -0.37675028       0.59560483       0.24630159      -0.13920494       0.05405193      -0.03803662
H        1.34711219       6.25839653      12.45866824       0.41667070      -0.44916578      -0.06968669       0.12594074       0.08345986       0.00863790
H       17.04353701       5.99213178      10.86536313      -0.42969503      -0.58303979       0.12180123       0.14029872      -0.01344412      -0.01058488
H        7.15036975       1.57941801      16.13716974      -0.46820475      -0.13849952       0.41263911       0.06538461      -0.04050228       0.22080913
H       12.06185444       9.69269172       9.95159511       0.18002952       0.06428833       0.02044013       0.06101401      -0.27387651      -0.16424678
H        3.53949775       5.35243951      16.12335860       0.38364505       0.37621690       0.25201963       0.10346235      -0.11735532       0.16824500
H       15.03805206       6.35401803       9.81002672      -0.13210465      -0.42382466       0.36282703      -0.00674922       0.07377036      -0.06613106
H        4.23204219       0.96846927      13.58215272      -0.58455743       0.41341062      -0.24857994       0.05704816       0.02145507      -0.00353247
H       13.78927221       9.54561427      10.38167129       0.07830022      -0.17501752      -0.26373896       0.31958624       0.09885574       0.18322813
H        4.49156842       6.69949280      16.76882812      -0.24999219       0.11426063       0.03132576      -0.05755687      -0.07106883       0.03336712
H       14.15407043       5.11908328      10.86496377      -1.00399515      -0.39553922      -0.20061982      -0.06466863       0.18875713      -0.23217075
H        5.70154307       2.49704860      12.22330098       0.45924955      -0.34633995       0.25093604       0.03225772       0.14463566       0.02636275
H       14.64053781      10.94337580      11.89512374       1.25721760      -0.22564482       0.26882498       0.33184017      -0.00953148      -0.00849716
H        4.25972339       6.68063920      11.70595590      -0.33270231      -0.23549721       0.14762953      -0.04083839      -0.09734659       0.19144089
H       15.52566415       3.89087360      12.50771976      -0.41610946      -0.27572490       0.25232880      -0.04498705      -0.19276028       0.00096705
H        7.35710023       1.81464251      11.92237172      -0.12882701       0.00741434      -0.29769745      -0.05692279      -0.08965856       0.02407803
H       13.86195287      12.51590421      12.30149605       0.04003112      -0.49544670      -0.00806273      -0.07040004       0.07869551       0.07874164
H        3.25978945       5.29466238      11.22850851      -0.16874328       0.67269477       0.48822735       0.03377159      -0.22669614       0.10560795
H       15.38615214       6.40214261      14.77205402      -0.02858157      -0.43533539       0.55044736      -0.02110163       0.16160610      -0.02384827
C        6.04070179       0.30821708      12.56619410       0.09275426       0.76133892       0.10817569      -0.31198191       0.08431196       0.45832529
C       12.79803289      11.13852103      11.17852095       1.58286049       0.81739645       0.73342302      -0.10337360      -0.00303491      -0.30926568
C        2.38598634       6.67887709      12.50010015      -1.56520400       0.08834832       0.58238029       0.05846123      -0.10785944      -0.23390654
C       16.16646530       5.33464802      11.19486088       1.17500778       1.15544609      -0.05667998      -0.19692652      -0.23858088      -0.02698266
N        4.89331787       0.06812311      13.14616320      -0.06469378      -1.55085947       0.99840832       0.21765311      -0.18464886       0.55812424
N       12.90902408      10.09155497      10.41746871      -0.92800604      -1.36905620      -0.64273910       0.15580124       0.13504786       0.12180541
N        3.59864155       6.20109749      16.72648647      -0.54891039      -1.42946181      -0.47170956      -0.28310428       0.25021181       0.72052148
N       15.02865284       5.58416817      10.54941348       1.00437895       0.74819888      -0.14540915       0.22492861       0.15741456       0.09624417
N        6.39518300       1.64311584      12.25471980      -0.14802131       0.39910680      -0.36578692      -0.15596386       0.40647423      -0.00228412
N       13.84240116      11.53869761      11.91191278      -2.06022150       0.95483529      -0.37851153      -0.21591135      -0.10109350       0.08827362
N        3.34955523       6.17825310      11.80372893       1.83388967      -1.01190725      -1.50268858       0.22576841      -0.18837128      -0.07426396
N       16.32750903       4.45689220      12.22246515       0.62980770      -0.59287209       0.13992676      -0.99432247       0.25346051      -0.18447823
Pb       0.49001106       2.06038751      10.49015709       0.07089783      -0.11853149       0.05509801       0.42906165       0.96672441       0.71441210
Pb      18.41436074       9.69898875      13.65044215       0.19916643       0.11528488      -0.04422013       1.80115544      -1.77708627      -1.63398838
Pb       8.08873805       7.50623908      10.78741761       0.30304632       0.22023538      -0.21663878      -0.50852028      -0.20929882      -0.41555021
Pb      10.50233239       4.16316081      13.00816096       0.04878713       0.11798468      -0.03790489      -0.60148251      -3.01579150      -0.44039013
I       39.70099423       3.56301641      14.07416734       0.11184643      -0.26301744       0.03782582      -0.10704249       1.59137170       1.33821078
I       39.61658098       7.35890177      11.94509715       0.09988251      -0.15240760      -0.15272416      -0.57991864       0.53045306      -1.19705624
I        9.45924012       9.46515333      13.02737448       0.08089100       0.32247417      -0.00764094      -2.59858094       1.89477072       1.13723092
I        9.58858295       2.02896505      10.76564565       0.10285181      -0.09227465      -0.14965241       2.46477778       1.35117815      -0.21608010
I       17.54754668       0.15825574      11.06274814      -0.04904139       0.07315751       0.10226912      -0.22902963       0.58175845       0.24759169
I        1.30060535      11.48763101      12.89573042      -0.01118561       0.24419866       0.02222490      -0.82665762      -0.52636577      -0.58045200
I       11.42820139       6.16626907      10.75025240      -0.29227707       0.19491772       0.00096245       1.38765401       0.50460019       0.09986956
I        7.23537845       5.53938347      13.10943251       0.02338108      -0.23618069       0.00518464       0.90385788      -0.05182064      -0.06466201
I        3.48489948       2.96090385      10.39003313      -0.01636484       0.08686457      -0.08629135      -0.63893278       0.37586475      -0.36299097
I       15.57174761       8.44634916      13.23672667      -0.26325740       0.00989325       0.06332593       0.33572413       2.24920973      -0.49805383
I        5.28457273       9.19320082      10.90799711       0.17161259      -0.26803748      -0.06531532      -0.34719604       1.65395801      -0.66793904
I       13.42196080       3.17232619      13.37189602      -0.16282871      -0.34669712      -0.03364790      -0.98908474       0.88468665      -0.34462832
H        7.14771536      23.17917173      17.67357319       0.22666765       0.04465417       0.47789046      -0.13247451       0.02131006      -0.00265607
H       11.54860567      11.63963593      15.68398219      -0.71172021       0.14723790       0.12429313      -0.17354463      -0.02061559       0.01903544
H        1.63296153       5.93478974      17.22897105      -1.41298992      -1.01537745      -0.27696712       0.35416803      -0.01092736      -0.07222951
H       17.45796848       5.49774533      15.39685508       0.98727036       0.16374660      -0.09218972       0.14472655      -0.13032867       0.00127523
H        5.14315524      22.58556765      13.75426868      -0.03244521       0.60709588      -0.38843829       0.02622156       0.07142110       0.03733543
H       11.67646100       9.53164986      14.47720325       1.05474761       0.49693447       0.54451690      -0.00297391       0.01566602      -0.10100393
H        1.63139986       7.92584563      13.87469707       0.17303459       0.35909555      -0.00870712      -0.00453567      -0.10512837      -0.11455449
H       17.61649849       3.68414696      16.81244306       0.07755563      -0.17414825       0.15190524      -0.07426191       0.07358608       0.08420393
H        5.50592774       2.24955463      16.37155462       0.30881376      -0.63086529       0.35770668       0.02750197       0.02416919      -0.06483358
H       13.50047808       9.51285900      14.76755470      -1.04876193       0.51306952       0.08913392      -0.05438395      -0.03324626      -0.04374782
H        3.31171196       8.27209879      13.39548719       0.85316063       0.42835200       0.48546981       0.00569622      -0.01579212       0.26009370
H       15.78895728       3.51161458      17.03886896       0.60737762       0.43003644      -0.35689224      -0.19267429       0.11858403      -0.17842414
H        3.93240380       0.78251723      17.82192065       0.61384329      -0.13374384       0.18559544       0.10353834       0.31671143      -0.03938493
H       14.48822214      11.27372530      16.09208598       0.00246379      -0.18035262       0.05834374      -0.11997789      -0.16160726      -0.01835318
H        3.19745803       8.11433721      18.54566654      -0.39892411      -0.37110230      -0.47637533       0.02207727       0.09335743      -0.16027129
H       14.37172436       5.29471687      15.92342260      -0.44382377      -0.14341852      -0.31874263      -0.11914858       0.01948804       0.00703076
H        5.05091477      22.80980552      18.76511033       0.06820264       0.98178362      -0.52624175      -0.16682619      -0.08621050       0.16952093
H       13.48609666      12.56916677      16.67855339      -0.24337089      -0.34031374      -0.24705530      -0.09993403       0.03637326       0.11747211
H        1.50917861       7.67541373      18.65234169      -0.42342479       0.38268345       0.17376102      -0.11367959       0.17212938       0.00758602
H       17.25247847       4.22316467      12.66768006      -0.53956868       0.63879365      -0.61996197       0.05016394      -0.09016889      -0.05038994
C        5.97029094       0.45126868      17.39921601      -1.65909382      -0.20488528      -0.52305892       0.35875250      -0.59335662      -0.18400467
C       12.47678197      11.09594790      15.61663546       0.39757181       0.39088897      -0.01374656       0.06434480       0.40471039       0.94726843
C        2.48433955       6.51586416      17.36890543       2.48201821       1.55665352      -0.23491501       0.21716826       0.41309887       0.05642109
C       16.53894377       5.00739056      15.77809426      -0.83683291       0.84020169      -0.56753573      -0.38269424       0.01143716       0.13310261
N        6.21861379       1.51184150      16.64154913       0.35624872       0.54648340      -0.38844742       0.40463283      -0.10854121      -0.48868118
N       12.55609776       9.99927626      14.90867794      -0.04909604      -1.82086775      -1.13071530      -0.80912618      -0.45277676      -0.22715597
N        2.47864086       7.71099177      13.31250408      -1.17834868       0.17422319      -0.00639379       0.33978096      -0.88666175       0.15224892
N       16.65852111       3.93915880      16.50821045      -0.64980542      -0.90749823       0.87133863       0.18069232      -0.21073005       0.05066222
N        4.78244716       0.20133593      17.98329406       0.60905072      -0.49150936      -0.00509415      -0.13945197       0.07640662      -0.13492751
N       13.52020865      11.64070324      16.20593986       0.76410412       0.78033905       0.52190936      -0.23939062      -0.10328667       0.46307341
N        2.38394450       7.59660937      18.10210397       0.18326002       0.32447836       1.00669566      -0.35277536       0.67984285       0.27094095
N       15.34824790       5.60532188      15.47725949       0.06057474       0.34494863      -0.17000263      -0.10908794      -0.27293725      -0.93807944
Pb       0.45830700       2.12239618      15.08021192       0.18732580      -0.12882232      -0.18681609       0.91789611      -2.62598676       0.85456904
Pb      18.23847501       9.66572128      18.39266510       0.35576955       0.30242143      -0.23421599      -0.59655233       0.39220743       1.29732290
Pb       8.23686002       7.70653831      15.26149645       0.14049946      -0.01495481       0.38587460      -1.60153634       0.51858621       2.46659229
Pb      10.39933686       3.88242940      17.69872880      -0.03747496       0.43537111       0.18422725       0.75662865      -3.00520505       4.02525314
I       -0.31522019       4.14177417      17.42958307      -0.09526954      -0.01527785       0.02458129      -1.88544837      -0.24106055      -0.24752840
I       39.68273442       7.41534954      16.66070351      -0.13319552      -0.12211731      -0.04040235      -0.34371778      -0.58757581      -1.64307535
I        9.33534833       9.42605269      17.99281603      -0.04831367       0.07041172      -0.12787260      -0.27109344       0.66994550       1.62636807
I        9.48477840       2.18444998      15.39699035      -0.04848183      -0.43588664      -0.16338716      -0.44709126      -1.04440727      -0.87949568
I       17.57199407       0.19954388      15.61984939      -0.15902873       0.00075759       0.31593551      -0.52794683       0.34798979      -1.26214619
I        1.28090425      11.76181761      17.49509841      -0.06059120      -0.02312595       0.17190000      -0.59442435      -1.07033274       1.59413404
I       11.33000481       6.09670241      15.41082564      -0.02934787       0.12399835       0.10960441       3.41724095       1.22241023      -1.38195754
I        7.38682058       5.63319625      17.66760607      -0.21352372      -0.33457974      -0.07623431       0.21492217      -0.21782342       1.79285522
I        3.57970918       3.05490977      14.68194981      -0.26335319       0.07363832       0.09746836      -1.30892733       0.68125367       0.67047748
I       15.46019526       8.70168270      17.97684343      -0.25214609      -0.25610817      -0.01896508      -0.09636300      -0.42208241      -0.63351634