768
Lattice="40.227587415121015 -0.7682833808457515 1.3263590934115383 0.394859312395313 23.52400323722727 0.25591382290307674 -0.5366011814355014 -0.10491616676151522 18.726843227480614" Properties=species:S:1:pos:R:3:forces:R:3:momenta:R:3 pbc="T T T"
H        6.52605325       1.96428778       3.94971979      -1.64233341       0.98986688       0.20150337       0.19896349      -0.02587504      -0.16715543
H       11.28569445      13.71230838       1.96090443      -0.47994208      -0.44025527       0.03392484       0.06098264       0.01866018       0.05930557
H        0.91329867       7.55694484       4.14972490       0.01385699       0.27100046       0.35404880       0.06091127       0.12574604      -0.03626313
H       16.40740614       7.88667002       2.48320770       0.20389025      -0.23806274      -0.01025342       0.09477046      -0.10841514       0.06556715
H        6.45513844       3.16389424       7.25604059      -0.65376695       0.01438445       0.19051831       0.06247566       0.06328758       0.06252029
H       11.13065945      11.54072859       0.85174129      -0.05610516       0.28999853      -0.12694582       0.02579264       0.05045120      -0.05582284
H        3.02876587       6.87450760       7.54957719      -0.11443196       0.02263818      -0.07599908      -0.09816690      -0.01372535      -0.02201004
H       14.71422296       8.51432535       0.88738738       0.58547987       0.57435634      -0.17038615       0.00243177       0.08399168       0.07074473
H        3.47251690       2.30540896       4.07992892       0.40409570      -0.56807513       0.51136822       0.14053117      -0.01305348       0.16870688
H       12.76202684      11.10337973       1.31427487      -0.05051591       0.10514253       0.10418263       0.06152147      -0.18124421      -0.05216213
H        3.59795827       8.69108434       7.69956375       0.32911323       0.00304387       0.04045466      -0.13096536       0.02456535       0.02911500
H       13.74992644       7.13936815       1.21211065      -0.17114253      -0.12609246       0.07208811       0.11473247      -0.06456330      -0.04139744
H        4.70742616       4.19447418       2.96725443       0.54142379      -0.33158556       0.32455217      -0.02615144      -0.07748020      -0.02187703
H       13.83080474      12.57689281       3.26664280       0.99608280      -1.04335460      -0.22431866      -0.10862956       0.12204505       0.06854345
H        3.72552334       8.45030244       3.78397262      -0.33520725      -0.21626986      -0.16051989      -0.04192963      -0.07367505       0.08682882
H       14.56982169       5.61178103       3.31753478       1.01744946       0.78292285      -0.41723751      -0.13747591       0.02924715       0.06302227
H        6.48643162       4.05580222       2.95236558      -0.22329302      -0.26183138       0.14551798      -0.13783355       0.08023022       0.16540813
H       12.91216581      14.05666321       3.54322226       0.10460584      -1.08491599      -0.88085783       0.01864820       0.08526142       0.13081300
H        2.82405806       7.09173785       3.14357268       0.16742430      -0.87860812      -0.56202452       0.09868658      -0.08044215       0.30580046
H       14.52693851       8.21072841       5.57548473       0.30805854       0.20751083      -0.05787992      -0.13350222      -0.04644588      -0.13733221
C        5.50970326       2.52631539       3.88453643       2.94985567      -1.75855896       0.10970579       0.51525130       0.57984802      -0.70949050
C       12.05000528      12.87136962       2.09786089       0.49753195       0.80129044       0.14635203      -0.18210986       0.17297589      -0.24029353
C        1.76330434       8.24315507       4.36436500      -1.39326753      -0.69789720      -0.56510302       0.00154671      -0.45478041       0.21972838
C       15.50006888       7.24204309       2.37123144       1.59679437       1.01773187       0.38847449       0.66623010       0.86487261      -0.13183370
N        4.43677515       1.92254224       4.34298039      -1.21894967      -0.31846809       0.11475952      -0.26360497      -0.21974537      -0.55350838
N       11.98333104      11.79797682       1.35928773      -0.14206309      -0.84299101      -0.26949202      -0.22819153      -0.00622914       0.56257597
N        2.89021894       7.83167451       7.96372430      -0.20232363       0.25075111       0.00944647      -0.65605411       0.29948189      -0.13359714
N       14.61695037       7.68470371       1.46684394      -1.60804349      -1.30206276       0.06783319      -0.21005170       0.07348177      -0.27093268
N        5.57633486       3.69465756       3.30652938      -0.58915949       1.47892718      -1.03054565      -0.01469782       0.61215785       0.18730510
N       13.03238074      13.16576383       2.94871743      -0.97324195       2.14340704       1.03629938       1.02105157       0.26318885       0.62047441
N        2.84340364       7.92037467       3.70375994       1.24288665       1.05185972       0.53486166      -0.44584786       0.20109531      -0.41393963
N       15.44724486       6.21738535       3.20296800      -1.89630325      -1.23302668       0.34793450       0.22048875       0.20122802       0.07747499
Pb      40.13012759       2.85699850       3.00730367       0.13348091       0.06732775      -0.02532706       0.04232140       3.65049146       0.93488525
Pb      17.78169831      11.20489049       4.78327511       0.14138650       0.60802173       0.18708369       3.29662311      -2.11805507      -2.42943813
Pb       7.58931560       9.39631438       1.88424779      -0.18216440      -0.15225838      -0.18270219      -0.18190457      -2.77462474       1.18397940
Pb       9.78174909       5.77029549       4.19531325      -0.01911410      -0.00369039       0.18310641       2.64402355      -2.75975048      -0.25463038
I       38.77831145       4.75070710       5.25311212       0.13222435       0.16642213       0.25218015      -2.40870207      -0.54294956      -0.64818566
I       38.93224650       8.90167741       3.15774191      -0.07169716      -0.08210026       0.03435662       0.34983784      -0.57186167       3.00765652
I        8.53538790      11.26982914       4.30661890       0.23601028       0.31862243      -0.13849123      -0.79693475       0.48098087       0.61274760
I        8.93857008       3.76759775       2.03143803      -0.03052327      -0.06015746      -0.17580033       1.89711212       0.60755956      -2.05994862
I       17.02359745       1.85759443       2.38114642      -0.08447850      -0.17960328       0.15268681       0.55710399      -1.12946389      -0.71991561
I        0.90796885      13.19591180       4.09253854      -0.27802733      -0.03680788       0.11994718      -1.84239239      -1.02514158      -1.91565743
I       10.59801484       7.88844739       1.86221017       0.21633958       0.15208228       0.04432164       0.25592994      -0.38013501      -0.14690062
I        6.81774365       7.10907598       4.20155247      -0.07883295       0.19118079      -0.11181924       0.51928868      -0.34415834       0.63512703
I        2.90672085       4.98287019       1.41840714      -0.35999270       0.02745777       0.03592836      -1.76674341       0.73168978      -1.90953772
I       14.76146783      10.46005180       4.45020999       0.02507507      -0.04655643      -0.13121725       0.78525238       0.21506951       1.76904587
I        4.71311397      10.61408968       1.93662843      -0.08339512       0.04024038      -0.08045546       2.34106045      -0.09244442      -0.36641896
I       12.49948745       4.24659843       4.55465201       0.29706213       0.24538637       0.18443927       0.00635296       0.22822493      -1.93025379
H        6.01949647       1.47961195       8.78538903       0.14421452      -0.08036311      -0.28632064      -0.11756087      -0.01601170      -0.06625674
H       11.15144651      13.63219383       6.93223325       0.29866182      -0.66299832      -0.02077689      -0.08504774      -0.06847175      -0.19004652
H        0.98241804       7.17700068       8.69260784       0.17275821       0.35435450       0.14531743      -0.09023989      -0.08416199       0.15291519
H       16.40656635       7.55403625       6.84435708      -0.31358852       0.04597641       0.10196350       0.12753221       0.10417745       0.00799599
H        4.49282617       0.95155759       4.74915735      -0.19995241       0.57065480      -0.25176102      -0.18416340      -0.22822118       0.04087078
H       10.79772832      11.51577155       5.82718947      -0.47570478       0.10757758      -0.36840962       0.01680762      -0.02732358      -0.16092464
H        0.59734737       9.39087343       5.59946098       0.91474405      -0.07605961      -0.31219416       0.03085502      -0.07438558      -0.09892687
H       16.36389187       5.93753143       8.49712642      -0.52094941      -0.07293385      -0.40846720      -0.26115972      -0.13649919      -0.16174928
H        4.79630795       3.89298497       7.45665464      -0.33831796       0.10447410      -0.16872111       0.04851297       0.09041058      -0.00782489
H       12.44468769      11.04081615       6.01323274       0.50394698      -0.44417136       0.10949786       0.04502035       0.18947013       0.25591673
H        2.31331658       9.91492334       5.35741687       0.51910315       0.51061026       0.37684266      -0.21063245      -0.03178822       0.17978926
H       14.65369556       5.50372848       8.17698896      -0.17432176      -0.17109388       0.07386900       0.03895459      -0.10099752      -0.10385789
H        3.35475288       2.76641021       9.49238140       0.71868106      -0.81526509       0.04150037       0.00556756       0.12174994      -0.02616384
H       13.73399559      12.34341018       7.95916134       1.28894998      -0.99769570      -0.26698596      -0.25882994      -0.01195186       0.08486499
H        2.26110032       9.99838462       9.28202066      -0.52641452      -0.23648490      -0.06165327      -0.04206436      -0.15678763       0.10231184
H       13.56937352       6.90010086       6.14959222      -0.20645925      -0.17780035       0.18517110      -0.00988134      -0.18005825       0.15862165
H        4.07609071       1.18086557      10.03073064       0.06440588       0.40875001      -0.29752774       0.12558670      -0.09621024       0.09173267
H       13.09002191      13.99783202       8.13250604      -0.26860825      -0.59184904      -0.39752990       0.11793944       0.14269146      -0.20720264
H        0.60442764       9.35647151       9.74802706       0.35876586      -0.11375292      -0.21635635       0.01607364      -0.10625473       0.05824475
H       16.23660400       5.97483139       3.85365764       0.18487274       0.23299754      -0.28116867       0.05348395      -0.01280627      -0.08310870
C        5.20924870       2.20594030       8.60309682       0.76813775      -1.13380215       0.64383305      -0.21378627       0.34650216      -0.13734633
C       11.92802971      12.78081641       6.96766425      -0.52534749       0.91185205      -0.18670387      -0.27906495      -1.03974182       0.57295864
C        1.75295987       8.07028881       8.62010333      -0.19010011      -0.88454311      -0.18332091      -0.53271330      -0.06438968      -0.16715497
C       15.45095223       7.01090086       6.97352765       1.27379778      -0.27184550       0.39601663       0.31027929      -0.56010568       0.14846119
N        5.47546699       3.13902311       7.68248927       0.68235205       0.44013652      -0.16813886      -0.29153073       0.66379113       0.75351741
N       11.70616455      11.69271231       6.23768510       0.23101439       0.54517935       0.68047351      -0.36825936       0.79160948       0.29493108
N        1.55255080       9.27843153       5.14633619      -1.02281626      -0.01147078       0.30876292      -0.45771022       0.03596664       0.08763228
N       15.48666604       6.03369851       7.89700694       0.34641574       0.67277220      -0.20640304      -0.49856291       0.02842324      -0.49499508
N        4.13111786       2.00634063       9.38071300      -1.29157639       0.98307599       0.04018678      -0.73046816       0.90554981      -0.48091149
N       13.01013776      13.04985403       7.67882000      -1.13407312       1.43917864       0.43088240       0.46987000      -0.15523773      -0.25631388
N        1.49898357       9.24364687       9.20496656       0.31467945       0.66970396       0.38569930      -0.54691409       0.22387719      -0.01161002
N       14.46374941       7.38290711       6.18136746      -0.69868843      -0.44242590      -0.11212065       0.06481304      -0.08884494       0.32615152
Pb      39.97304967       2.84778501       7.66431519      -0.06459965      -0.10874561       0.06725950       1.23405242      -0.34071231      -1.00368315
Pb      17.52569435      11.32616480       9.53827675       0.16700953       0.50218760      -0.06668510       3.96256328      -0.16631232       1.81531868
Pb       7.74672656       9.33427058       6.55779855      -0.50809811      -0.17035170       0.09249256       0.98361442       2.17727602      -2.23837293
Pb       9.69768932       5.72100638       8.93190059      -0.24966548      -0.05009526      -0.05682091      -0.17290026      -0.94636199      -0.42032710
I       38.83974341       4.85512144      10.00156975       0.06950333      -0.04361321      -0.02071393       0.32512311      -0.69095545       0.66970727
I       38.61047287       8.88731471       8.06084242       0.10313849      -0.10445641      -0.31054239       0.11473205      -1.19482843       0.11182869
I        8.47121312      11.33648428       8.84150838       0.16850202       0.07783985       0.29391554      -0.98407599       1.25495003      -1.78672929
I        8.86831302       3.64147384       6.45763298      -0.07240620       0.02739695       0.11082650       0.80074277       1.88207430       2.14575769
I       16.83983606       1.81609855       7.04878348       0.06018001      -0.29755829      -0.09648673       0.06387285      -1.24713564       0.02531967
I        0.66136921      13.21315959       8.98857138      -0.26442535      -0.13734218      -0.27379855       0.44761193      -0.39708258      -0.32757152
I       10.62071030       7.92308658       6.79947168       0.18590618      -0.06702499      -0.16494851       0.86921053      -0.40239989       0.32439806
I        6.65533680       7.19000052       8.80112033       0.07852826      -0.07267783       0.13577925       2.67798670      -0.83747456      -0.15123435
I        2.61366928       4.82345287       6.04701234       0.07771815       0.05540426       0.05241506      -1.53972218      -1.13303104       1.82223360
I       14.54648305      10.45206981       8.76841140       0.10436329      -0.07851942       0.14200398      -0.99942172       1.16163136       0.32478311
I        4.76845463      10.64008129       6.61353215      -0.01363712      -0.00109783      -0.09938063       0.75081912      -0.52900231       0.41257938
I       12.59649267       4.63755254       9.39697943       0.05758757      -0.26242829      -0.06127227      -1.06840058      -1.74462044      -1.50962764
H        6.25775266       1.91182970      13.31314140      -1.64233341       0.98986688       0.20150337       0.19896349      -0.02587504      -0.16715543
H       11.01739386      13.65985030      11.32432604      -0.47994208      -0.44025527       0.03392484       0.06098264       0.01866018       0.05930557
H        0.64499808       7.50448676      13.51314651       0.01385699       0.27100046       0.35404880       0.06091127       0.12574604      -0.03626313
H       16.13910555       7.83421194      11.84662931       0.20389025      -0.23806274      -0.01025342       0.09477046      -0.10841514       0.06556715
H        6.18683785       3.11143616      16.61946220      -0.65376695       0.01438445       0.19051831       0.06247566       0.06328758       0.06252029
H       10.86235886      11.48827051      10.21516290      -0.05610516       0.28999853      -0.12694582       0.02579264       0.05045120      -0.05582284
H        2.76046528       6.82204952      16.91299880      -0.11443196       0.02263818      -0.07599908      -0.09816690      -0.01372535      -0.02201004
H       14.44592237       8.46186727      10.25080899       0.58547987       0.57435634      -0.17038615       0.00243177       0.08399168       0.07074473
H        3.20421631       2.25295088      13.44335053       0.40409570      -0.56807513       0.51136822       0.14053117      -0.01305348       0.16870688
H       12.49372625      11.05092165      10.67769648      -0.05051591       0.10514253       0.10418263       0.06152147      -0.18124421      -0.05216213
H        3.32965768       8.63862626      17.06298536       0.32911323       0.00304387       0.04045466      -0.13096536       0.02456535       0.02911500
H       13.48162585       7.08691007      10.57553226      -0.17114253      -0.12609246       0.07208811       0.11473247      -0.06456330      -0.04139744
H        4.43912557       4.14201610      12.33067604       0.54142379      -0.33158556       0.32455217      -0.02615144      -0.07748020      -0.02187703
H       13.56250415      12.52443473      12.63006441       0.99608280      -1.04335460      -0.22431866      -0.10862956       0.12204505       0.06854345
H        3.45722275       8.39784436      13.14739423      -0.33520725      -0.21626986      -0.16051989      -0.04192963      -0.07367505       0.08682882
H       14.30152110       5.55932295      12.68095639       1.01744946       0.78292285      -0.41723751      -0.13747591       0.02924715       0.06302227
H        6.21813103       4.00334414      12.31578719      -0.22329302      -0.26183138       0.14551798      -0.13783355       0.08023022       0.16540813
H       12.64386522      14.00420513      12.90664387       0.10460584      -1.08491599      -0.88085783       0.01864820       0.08526142       0.13081300
H        2.55575747       7.03927977      12.50699429       0.16742430      -0.87860812      -0.56202452       0.09868658      -0.08044215       0.30580046
H       14.25863792       8.15827033      14.93890634       0.30805854       0.20751083      -0.05787992      -0.13350222      -0.04644588      -0.13733221
C        5.24140267       2.47385731      13.24795804       2.94985567      -1.75855896       0.10970579       0.51525130       0.57984802      -0.70949050
C       11.78170469      12.81891154      11.46128250       0.49753195       0.80129044       0.14635203      -0.18210986       0.17297589      -0.24029353
C        1.49500375       8.19069699      13.72778661      -1.39326753      -0.69789720      -0.56510302       0.00154671      -0.45478041       0.21972838
C       15.23176829       7.18958501      11.73465305       1.59679437       1.01773187       0.38847449       0.66623010       0.86487261      -0.13183370
N        4.16847456       1.87008416      13.70640200      -1.21894967      -0.31846809       0.11475952      -0.26360497      -0.21974537      -0.55350838
N       11.71503045      11.74551874      10.72270934      -0.14206309      -0.84299101      -0.26949202      -0.22819153      -0.00622914       0.56257597
N        2.62191835       7.77921643      17.32714591      -0.20232363       0.25075111       0.00944647      -0.65605411       0.29948189      -0.13359714
N       14.34864978       7.63224563      10.83026555      -1.60804349      -1.30206276       0.06783319      -0.21005170       0.07348177      -0.27093268
N        5.30803427       3.64219948      12.66995099      -0.58915949       1.47892718      -1.03054565      -0.01469782       0.61215785       0.18730510
N       12.76408015      13.11330575      12.31213904      -0.97324195       2.14340704       1.03629938       1.02105157       0.26318885       0.62047441
N        2.57510305       7.86791659      13.06718155       1.24288665       1.05185972       0.53486166      -0.44584786       0.20109531      -0.41393963
N       15.17894427       6.16492727      12.56638961      -1.89630325      -1.23302668       0.34793450       0.22048875       0.20122802       0.07747499
Pb      39.86182699       2.80454042      12.37072529       0.13348091       0.06732775      -0.02532706       0.04232140       3.65049146       0.93488525
Pb      17.51339772      11.15243241      14.14669672       0.14138650       0.60802173       0.18708369       3.29662311      -2.11805507      -2.42943813
Pb       7.32101501       9.34385630      11.24766940      -0.18216440      -0.15225838      -0.18270219      -0.18190457      -2.77462474       1.18397940
Pb       9.51344850       5.71783741      13.55873486      -0.01911410      -0.00369039       0.18310641       2.64402355      -2.75975048      -0.25463038
I       38.51001085       4.69824902      14.61653374       0.13222435       0.16642213       0.25218015      -2.40870207      -0.54294956      -0.64818566
I       38.66394590       8.84921933      12.52116353      -0.07169716      -0.08210026       0.03435662       0.34983784      -0.57186167       3.00765652
I        8.26708731      11.21737106      13.67004051       0.23601028       0.31862243      -0.13849123      -0.79693475       0.48098087       0.61274760
I        8.67026949       3.71513967      11.39485964      -0.03052327      -0.06015746      -0.17580033       1.89711212       0.60755956      -2.05994862
I       16.75529686       1.80513635      11.74456803      -0.08447850      -0.17960328       0.15268681       0.55710399      -1.12946389      -0.71991561
I        0.63966826      13.14345372      13.45596015      -0.27802733      -0.03680788       0.11994718      -1.84239239      -1.02514158      -1.91565743
I       10.32971425       7.83598931      11.22563178       0.21633958       0.15208228       0.04432164       0.25592994      -0.38013501      -0.14690062
I        6.54944306       7.05661790      13.56497408      -0.07883295       0.19118079      -0.11181924       0.51928868      -0.34415834       0.63512703
I        2.63842026       4.93041211      10.78182875      -0.35999270       0.02745777       0.03592836      -1.76674341       0.73168978      -1.90953772
I       14.49316724      10.40759372      13.81363160       0.02507507      -0.04655643      -0.13121725       0.78525238       0.21506951       1.76904587
I        4.44481338      10.56163160      11.30005004      -0.08339512       0.04024038      -0.08045546       2.34106045      -0.09244442      -0.36641896
I       12.23118686       4.19414035      13.91807362       0.29706213       0.24538637       0.18443927       0.00635296       0.22822493      -1.93025379
H        5.75119588       1.42715387      18.14881064       0.14421452      -0.08036311      -0.28632064      -0.11756087      -0.01601170      -0.06625674
H       10.88314592      13.57973575      16.29565486       0.29866182      -0.66299832      -0.02077689      -0.08504774      -0.06847175      -0.19004652
H        0.71411745       7.12454260      18.05602945       0.17275821       0.35435450       0.14531743      -0.09023989      -0.08416199       0.15291519
H       16.13826576       7.50157817      16.20777869      -0.31358852       0.04597641       0.10196350       0.12753221       0.10417745       0.00799599
H        4.22452558       0.89909951      14.11257896      -0.19995241       0.57065480      -0.25176102      -0.18416340      -0.22822118       0.04087078
H       10.52942773      11.46331347      15.19061108      -0.47570478       0.10757758      -0.36840962       0.01680762      -0.02732358      -0.16092464
H        0.32904678       9.33841535      14.96288259       0.91474405      -0.07605961      -0.31219416       0.03085502      -0.07438558      -0.09892687
H       16.09559128       5.88507335      17.86054803      -0.52094941      -0.07293385      -0.40846720      -0.26115972      -0.13649919      -0.16174928
H        4.52800736       3.84052689      16.82007625      -0.33831796       0.10447410      -0.16872111       0.04851297       0.09041058      -0.00782489
H       12.17638710      10.98835807      15.37665435       0.50394698      -0.44417136       0.10949786       0.04502035       0.18947013       0.25591673
H        2.04501599       9.86246526      14.72083848       0.51910315       0.51061026       0.37684266      -0.21063245      -0.03178822       0.17978926
H       14.38539497       5.45127040      17.54041057      -0.17432176      -0.17109388       0.07386900       0.03895459      -0.10099752      -0.10385789
H        3.08645229       2.71395213      18.85580301       0.71868106      -0.81526509       0.04150037       0.00556756       0.12174994      -0.02616384
H       13.46569500      12.29095210      17.32258295       1.28894998      -0.99769570      -0.26698596      -0.25882994      -0.01195186       0.08486499
H        1.99279973       9.94592654      18.64544227      -0.52641452      -0.23648490      -0.06165327      -0.04206436      -0.15678763       0.10231184
H       13.30107293       6.84764278      15.51301383      -0.20645925      -0.17780035       0.18517110      -0.00988134      -0.18005825       0.15862165
H        4.34439130       1.23332365       0.66730903       0.06440588       0.40875001      -0.29752774       0.12558670      -0.09621024       0.09173267
H       12.82172132      13.94537394      17.49592765      -0.26860825      -0.59184904      -0.39752990       0.11793944       0.14269146      -0.20720264
H        0.87272823       9.40892959       0.38460545       0.35876586      -0.11375292      -0.21635635       0.01607364      -0.10625473       0.05824475
H       15.96830341       5.92237331      13.21707925       0.18487274       0.23299754      -0.28116867       0.05348395      -0.01280627      -0.08310870
C        4.94094811       2.15348222      17.96651843       0.76813775      -1.13380215       0.64383305      -0.21378627       0.34650216      -0.13734633
C       11.65972912      12.72835833      16.33108586      -0.52534749       0.91185205      -0.18670387      -0.27906495      -1.03974182       0.57295864
C        1.48465928       8.01783073      17.98352494      -0.19010011      -0.88454311      -0.18332091      -0.53271330      -0.06438968      -0.16715497
C       15.18265164       6.95844278      16.33694926       1.27379778      -0.27184550       0.39601663       0.31027929      -0.56010568       0.14846119
N        5.20716640       3.08656503      17.04591088       0.68235205       0.44013652      -0.16813886      -0.29153073       0.66379113       0.75351741
N       11.43786396      11.64025423      15.60110671       0.23101439       0.54517935       0.68047351      -0.36825936       0.79160948       0.29493108
N        1.28425021       9.22597345      14.50975780      -1.02281626      -0.01147078       0.30876292      -0.45771022       0.03596664       0.08763228
N       15.21836545       5.98124043      17.26042855       0.34641574       0.67277220      -0.20640304      -0.49856291       0.02842324      -0.49499508
N        3.86281727       1.95388255      18.74413461      -1.29157639       0.98307599       0.04018678      -0.73046816       0.90554981      -0.48091149
N       12.74183717      12.99739595      17.04224161      -1.13407312       1.43917864       0.43088240       0.46987000      -0.15523773      -0.25631388
N        1.23068298       9.19118879      18.56838817       0.31467945       0.66970396       0.38569930      -0.54691409       0.22387719      -0.01161002
N       14.19544882       7.33044903      15.54478907      -0.69868843      -0.44242590      -0.11212065       0.06481304      -0.08884494       0.32615152
Pb      39.70474907       2.79532693      17.02773681      -0.06459965      -0.10874561       0.06725950       1.23405242      -0.34071231      -1.00368315
Pb      17.25739376      11.27370672      18.90169836       0.16700953       0.50218760      -0.06668510       3.96256328      -0.16631232       1.81531868
Pb       7.47842597       9.28181250      15.92122016      -0.50809811      -0.17035170       0.09249256       0.98361442       2.17727602      -2.23837293
Pb       9.42938873       5.66854830      18.29532220      -0.24966548      -0.05009526      -0.05682091      -0.17290026      -0.94636199      -0.42032710
I       38.57144281       4.80266336      19.36499137       0.06950333      -0.04361321      -0.02071393       0.32512311      -0.69095545       0.66970727
I       38.34217227       8.83485663      17.42426404       0.10313849      -0.10445641      -0.31054239       0.11473205      -1.19482843       0.11182869
I        8.20291253      11.28402620      18.20492999       0.16850202       0.07783985       0.29391554      -0.98407599       1.25495003      -1.78672929
I        8.60001243       3.58901576      15.82105459      -0.07240620       0.02739695       0.11082650       0.80074277       1.88207430       2.14575769
I       16.57153547       1.76364047      16.41220509       0.06018001      -0.29755829      -0.09648673       0.06387285      -1.24713564       0.02531967
I        0.39306862      13.16070151      18.35199299      -0.26442535      -0.13734218      -0.27379855       0.44761193      -0.39708258      -0.32757152
I       10.35240971       7.87062850      16.16289329       0.18590618      -0.06702499      -0.16494851       0.86921053      -0.40239989       0.32439806
I        6.38703621       7.13754244      18.16454194       0.07852826      -0.07267783       0.13577925       2.67798670      -0.83747456      -0.15123435
I        2.34536869       4.77099479      15.41043395       0.07771815       0.05540426       0.05241506      -1.53972218      -1.13303104       1.82223360
I       14.27818246      10.39961173      18.13183301       0.10436329      -0.07851942       0.14200398      -0.99942172       1.16163136       0.32478311