768
Lattice="32.0609120611585 -0.5112882221814271 -0.5475189371990378 0.2896562838185469 31.11650681404145 -0.5358671673453327 0.3216333527679892 0.2519783857508381 17.761452272036312" Properties=species:S:1:pos:R:3:forces:R:3:momenta:R:3 pbc="T T T"
H        2.12381468       3.26731778       3.00435379       0.12551870       0.70582336      -1.31148365       0.05049551       0.01892447       0.26374378
H        2.11774621       3.68502837       5.13908956      -0.34257605       1.01749643       0.69564359       0.04096557      -0.22235201       0.03963611
H        2.32621537       2.06231127       5.70431770       0.05421420       0.07369479      -0.08723535       0.02304774       0.28349861      -0.09168041
H        2.72378429       0.44011106       3.87644714      -0.05443537       0.24171616      -0.14175449       0.08423389      -0.10255269       0.05241821
H        2.54586216       1.02074079       2.21868540       0.09035031       0.12284603      -0.01483226       0.11078050      -0.10738422      -0.11683634
H        6.75123956       3.61536722      15.98417287      -0.27835492       0.71575891       0.41421023       0.11606808       0.05756779       0.05439908
H        6.31661905       2.89669393       0.52433740       0.28311494      -0.70647043       0.14810281       0.16258988      -0.05527619      -0.07510004
H        5.98624656       4.50085116       1.05389535       0.03975214       0.13164402      -0.22296021      -0.09099642       0.00149284       0.02504111
H        5.98877426       6.52709876      16.86435483       0.08855808      -0.27608190       0.52772237       0.15363140      -0.06345171       0.21628124
H        6.13825653       5.77008952      15.29172734       0.01364757       0.08057177      -0.11448467       0.17831021       0.07748311      -0.09984987
C        2.32990154       2.44921167       3.65416146      -0.06282729      -1.71729197       0.91544063      -0.27857389       0.40466317      -0.22683458
C        6.48641461       4.43718408      16.73624869       0.20800640       1.17437002       0.39450190       0.26002613      -0.16738350       0.05311192
N        2.21703310       2.72030617       4.92577948       0.14313283      -0.07858111       0.33115037       0.82500532      -0.19890503      -0.66421454
N        2.60332735       1.23684157       3.22684444      -0.04172260      -0.11416932      -0.37623394       0.48441684      -0.73721190       0.00393300
N        6.24575243       3.86829454       0.25921722      -0.41084810       0.44800247      -0.28174324      -0.48766757      -0.47249442      -0.01060476
N        6.20489754       5.67285218      16.30972485       0.00948208      -1.41363646      -0.65842823       0.53206508      -0.14336236      -0.15973793
Pb       5.09033736      30.94498752      16.32407705      -0.15083919       0.06457525       0.34577188       1.41093218      -0.33654159      -0.49719258
Pb       1.03521756      30.93698982      16.65464864      -0.06096006      -0.02376875       0.18850160      -2.34219570      -1.41494397       0.36021751
I        6.54214301       0.58352374       1.56847890      -0.16738081      -0.25809372      -0.02602046      -0.97744406      -1.05507832       1.70316114
I        1.19166624       5.81207837       1.48379763       0.11833054      -0.27366915      -0.14408939       1.25372559       0.09869398       0.67141241
I        6.72776587       0.99588899       5.93400768      -0.06725161      -0.16926669       0.22250076      -1.07747374       2.45658745      -0.03827775
I        1.41005863       6.39403273       5.98526696       0.28365987      -0.21497886      -0.21454118       1.69658985       1.16626821      -0.63305906
I        5.56940996       4.84908824       4.03170264      -0.01046203      -0.39500000      -0.26378794       0.27461934       0.66009847      -0.60594118
I        2.70691808       2.43976488      17.39471707       0.20515578      -0.31027311      -0.07556419      -1.61036565       2.87189512       0.07739577
H        1.87100914      10.94528607      -0.02034712      -0.30831743       0.12091132      -0.00319190       0.02120260       0.01149585      -0.15914505
H        0.94530757       8.81885034       0.45455700       0.30479926      -0.11086075      -0.02000204      -0.07496239      -0.20438669       0.06886338
H        1.56135663       8.51950989      16.52925205      -0.23042959      -0.28384451      -0.05820544      -0.09389681       0.02351857       0.05574270
H        2.16549487      10.41557732      14.83185066       0.06073680       0.19470295       0.38878035       0.07801770      -0.09951540      -0.05109120
H        2.45617819      11.99913164      15.55254321       0.19035744      -0.88453910       0.31556689      -0.07527138       0.07072496      -0.04468483
H        5.97641774      11.20852204       4.28445689      -0.02289930      -0.24361232       0.15859461      -0.00829024      -0.15482438      -0.18922760
H        5.85793994      13.50195997       4.88517702       0.16244025       0.03269294       0.63829644      -0.07332675       0.12482859       0.04570052
H        5.61944863      14.04801559       3.23887481       0.06206097       0.20356762       0.06980170      -0.06443288      -0.06138155      -0.01650182
H        5.33517438      12.18907395       1.46881517       0.19529444       0.33189270      -0.09642882       0.06831813      -0.03317843       0.12896247
H       15.32746299      12.72713482       4.90872523      -0.15521824       0.43287168       0.13432375      -0.13364938      -0.05787381       0.03361168
C        2.02078502      10.49803032      16.90163852       0.09971220       0.03680230       1.22829889      -0.35321185       0.62291133      -0.00551776
C        5.78337120      11.99534675       3.51855796       0.04349339       0.28744434       0.49388637       0.51191793       0.24652136      -0.62155321
N        1.58556913       9.26912692      17.22845833       0.04768421       0.27754033      -0.10390303      -0.53946384      -0.19595383      -0.15963789
N        2.35073047      10.96361074      15.70966140      -0.13192904       0.62525349      -1.76890531       0.21524658       0.00481551       0.76134889
N        5.72018780      13.27289939       3.91489410      -0.07975324       0.27855379      -0.91427651      -0.13434763      -0.03889199       0.43147749
N        5.60451237      11.57958579       2.29799400      -0.24908552      -1.03806364      -0.42752738       0.38997337       0.37259322       0.40151530
Pb       3.48944931       7.11659450       3.41962607      -0.17154978       0.28014022       0.05507484      -0.26048280       1.07041131      -2.32645848
Pb      31.56280118       6.77946989       3.04651581      -0.14882833       0.08146170       0.25670260      -2.18124483      -0.52784527      -1.75536003
I        5.22496337       8.79636295       5.41076778       0.17520328       0.08420844       0.19272648      -0.37500488      -0.37010384       1.06703951
I        2.66988589      14.14338656       5.50911760      -0.00931858       0.14492658       0.12641465       1.41244134      -0.89793775       1.08060696
I        5.65455982       8.08062939       1.06837048      -0.06058763      -0.01967332       0.16516946       0.36858548       0.52282475      -1.10736570
I        2.59778524      13.66577497       1.19699381       0.31199967       0.00205819      -0.25576925       2.80026373      -0.06153140       1.19134587
I        6.79330451      12.61204936      16.43854337      -0.19440586       0.13238279       0.06665180       0.60117720       0.20619157      -1.21540733
I        1.41583356       9.77010278       3.15878552       0.16419836       0.10359553       0.06045498       1.90998699       0.50295292      -2.74373770
H        9.82455827       3.10596501       2.88256792       0.13387632      -0.56228093      -0.66745418       0.14236637      -0.06988614       0.08552454
H       10.01032888       3.71967844       5.06201423      -0.03546995       0.63505776      -0.05420234      -0.07655940      -0.06280091      -0.08201111
H       10.59543842       2.14431773       5.66531967      -0.09208401       0.70758993      -0.80505106      -0.10642240      -0.00964659      -0.17151842
H       11.00795356       0.36349899       3.99556293      -0.32643064      -0.05508788      -0.18638747       0.00945139       0.08873853      -0.04313743
H       10.47308177       0.86361120       2.26106991       0.06011219      -0.32977448       0.31572063       0.04579199       0.06939884       0.11433173
H       13.80851624       5.36853001       0.45286189      -0.01962267       0.42248711       0.66048311      -0.08299845       0.17602239       0.06767052
H       13.84825658       6.60973287      16.06193112      -0.10823837       1.65306568      -0.00823501      -0.14489445      -0.14768558       0.00295771
H       13.92100216       5.11527466      15.17450409       0.09217739       0.55974010       0.84812582       0.11366495      -0.18149379      -0.12121508
H       14.34539287       2.96582919      16.71257496       0.04085721      -0.30892756      -0.04314538      -0.03307393       0.00163053      -0.03623728
H       14.15055220       3.03198576       0.70435790      -0.11455351      -0.16909380       0.97553592       0.00220479       0.02681027       0.02807120
C       10.22158198       2.30772301       3.59416149      -0.32985777       0.69816127       1.04708556       0.10417097       0.32522855      -0.46398108
C       14.13964595       4.96855805      17.33453717       0.05927040       0.02195781      -0.98284326      -0.86251274      -0.15691921       0.36879618
N       10.29304568       2.76097274       4.83902437       0.20473966      -1.74732623       1.27639471      -0.11685962       0.98258078       0.04794839
N       10.53717707       1.06644092       3.27360301       0.33651063       0.56320636      -0.83246769      -0.14516202      -0.30484772       0.09774470
N       14.02036744       5.62479303      16.13963625       0.03619526      -3.00209226      -0.19744152      -0.19304513       0.24687407      -0.09509358
N       13.94872632       3.38303607      -0.23972094       0.03929081       0.73351900      -1.21893243       0.24014614       0.47963570       0.00011691
Pb      12.99603656      30.58788560      16.51613496       0.35111037      -0.08395643      -0.36032297       0.32925760       2.17775918       2.32591262
Pb       9.08647100      30.56669934      16.60729486      -0.20762390       0.19498521      -0.49129672      -1.20926518       1.30517859      -0.84062172
I       14.45287607       0.10137785       1.68895224       0.06616713      -0.04834542      -0.19475706      -0.03313235      -0.42880145      -0.38458253
I        9.60392752       5.84791787       1.62933128      -0.23457663      -0.35137686      -0.28458860      -0.37464609       0.02582532       2.38907264
I       14.62246078       0.92458387       6.13905696      -0.13593668       0.12407358      -0.16207225      -1.18694556      -0.71322530      -0.86272433
I        9.61414863       6.03441101       5.94129073      -0.09025022       0.40113336       0.14552886      -0.21583494      -0.92689108       1.75828249
I       13.44412778       4.51577015       3.56862639      -0.02132678      -0.08733336       0.00361866      -3.29319255      -2.27068398      -0.02608446
I       10.82280267       1.95463036      17.48667828      -0.07885781       0.25684177      -0.15925095       0.88974428       0.15216045       0.17339748
H        9.50397909      11.04282336      -0.13597182       0.29479522      -0.34106937      -0.06001129      -0.23955846       0.07350487      -0.02157596
H       10.12530966      11.67790412      15.37129976      -0.04822203      -0.29619817       0.16256263       0.13540294      -0.01276971       0.00736829
H        9.94081864      10.01586763      14.87473280       0.18592937       0.51736832       0.98142054      -0.02104816      -0.09210956      -0.14656273
H        9.73718392       8.35734713      16.84664749       0.08047078       0.50510739       0.45624568       0.03176353      -0.09277305      -0.07803615
H        9.33729888       8.80532763       0.69188792       0.00809347       0.16110860       0.32575058       0.24165491       0.03973877      -0.06101834
H       14.42336701      10.84120732       3.83478560      -0.11175545      -0.25537729       0.00823404      -0.05035347      -0.23725725      -0.12850261
H       13.80279582      10.78502256       1.54425807       0.24130090       1.65214081      -0.03227153      -0.01074663      -0.05794843       0.01914907
H       14.21608564      12.60404663       1.30331377      -0.03058526      -0.82509008       0.45798315      -0.01049347       0.01874801       0.03584375
H       15.13283212      13.71880223       3.40456359       0.07011716       1.24781110      -0.53589235      -0.02411807      -0.06351692      -0.25804423
H        5.68821186      10.53499183       2.13250258      -0.01619731       0.29381409      -0.06733342       0.18531222       0.02955390      -0.14087297
C        9.88238849      10.41509386      16.93861896      -0.61718713      -0.08680075       0.93716413       0.29262761      -0.04985475      -0.37464698
C       14.50580057      11.76837143       3.24169526       0.27565495       0.31602545      -0.57590559       0.08803662       0.30551949       0.79000523
N        9.99784390      10.69478880      15.67560036       0.13079603      -0.02478523      -1.88422479       0.46748525       0.77516184      -0.02358843
N        9.40640582       8.95557323      -0.30835823       0.07802658      -0.66347238      -1.22669373      -0.41258319      -0.18786595      -0.52740546
N       14.12952205      11.74648466       1.92783763      -0.33796283      -1.23367819       0.06061047      -0.10232094      -0.15276280      -0.49489114
N       15.01165794      12.85360962       3.88984193      -0.00655958      -1.37823873       0.70538359       0.37899876       0.68932064      -0.14430679
Pb      11.62180445       7.17680506       3.54618725       0.10999132       0.01734700       0.11825688       1.49577166      -0.28123108       2.81490219
Pb       7.64026828       7.35726537       3.62872393      -0.14963532      -0.10806753       0.01481969       3.14936994      -0.15726251       1.74844986
I       13.60474585       8.64771657       5.54481611       0.07541883       0.11507406       0.08828077       1.32844417       0.65200206       1.29416344
I       10.68577591      13.91203053       5.39061422       0.06613705       0.07178772       0.32590204       2.16756671      -0.96634322       0.25911076
I       13.45680603       8.15283994       1.11553707      -0.05762239       0.20939465      -0.15910318      -1.41880804       0.32601347       0.68555797
I       10.58721675      13.36725926       0.96364050      -0.04229999      -0.25041684       0.37507080      -0.09373836       0.87014968       0.89316590
I       14.98778124      12.50458712      16.40646032       0.04183390       0.03805461      -0.17380249       0.11688611      -0.59263576      -0.59771848
I        9.53520791       9.77714810       3.20299967       0.06306016       0.19630600       0.12058792      -0.12704975      -0.80216955      -0.98275462
H        2.28463136       3.39330697      11.88507993       0.12551870       0.70582336      -1.31148365       0.05049551       0.01892447       0.26374378
H        2.27856289       3.81101756      14.01981570      -0.34257605       1.01749643       0.69564359       0.04096557      -0.22235201       0.03963611
H        2.48703205       2.18830046      14.58504384       0.05421420       0.07369479      -0.08723535       0.02304774       0.28349861      -0.09168041
H        2.88460097       0.56610025      12.75717328      -0.05443537       0.24171616      -0.14175449       0.08423389      -0.10255269       0.05241821
H        2.70667884       1.14672998      11.09941154       0.09035031       0.12284603      -0.01483226       0.11078050      -0.10738422      -0.11683634
H        6.59042289       3.48937802       7.10344674      -0.27835492       0.71575891       0.41421023       0.11606808       0.05756779       0.05439908
H        6.47743573       3.02268312       9.40506354       0.28311494      -0.70647043       0.14810281       0.16258988      -0.05527619      -0.07510004
H        6.14706324       4.62684035       9.93462149       0.03975214       0.13164402      -0.22296021      -0.09099642       0.00149284       0.02504111
H        5.82795759       6.40110956       7.98362870       0.08855808      -0.27608190       0.52772237       0.15363140      -0.06345171       0.21628124
H        5.97743986       5.64410032       6.41100121       0.01364757       0.08057177      -0.11448467       0.17831021       0.07748311      -0.09984987
C        2.49071822       2.57520086      12.53488760      -0.06282729      -1.71729197       0.91544063      -0.27857389       0.40466317      -0.22683458
C        6.32559794       4.31119488       7.85552256       0.20800640       1.17437002       0.39450190       0.26002613      -0.16738350       0.05311192
N        2.37784978       2.84629536      13.80650562       0.14313283      -0.07858111       0.33115037       0.82500532      -0.19890503      -0.66421454
N        2.76414403       1.36283076      12.10757058      -0.04172260      -0.11416932      -0.37623394       0.48441684      -0.73721190       0.00393300
N        6.40656911       3.99428373       9.13994336      -0.41084810       0.44800247      -0.28174324      -0.48766757      -0.47249442      -0.01060476
N        6.04408087       5.54686298       7.42899872       0.00948208      -1.41363646      -0.65842823       0.53206508      -0.14336236      -0.15973793
Pb       4.92952068      30.81899833       7.44335092      -0.15083919       0.06457525       0.34577188       1.41093218      -0.33654159      -0.49719258
Pb       0.87440088      30.81100063       7.77392251      -0.06096006      -0.02376875       0.18850160      -2.34219570      -1.41494397       0.36021751
I        6.70295969       0.70951293      10.44920504      -0.16738081      -0.25809372      -0.02602046      -0.97744406      -1.05507832       1.70316114
I        1.35248292       5.93806756      10.36452377       0.11833054      -0.27366915      -0.14408939       1.25372559       0.09869398       0.67141241
I        6.88858255       1.12187818      14.81473382      -0.06725161      -0.16926669       0.22250076      -1.07747374       2.45658745      -0.03827775
I        1.57087531       6.52002192      14.86599310       0.28365987      -0.21497886      -0.21454118       1.69658985       1.16626821      -0.63305906
I        5.73022664       4.97507743      12.91242878      -0.01046203      -0.39500000      -0.26378794       0.27461934       0.66009847      -0.60594118
I        2.54610141       2.31377568       8.51399094       0.20515578      -0.31027311      -0.07556419      -1.61036565       2.87189512       0.07739577
H        2.03182582      11.07127526       8.86037902      -0.30831743       0.12091132      -0.00319190       0.02120260       0.01149585      -0.15914505
H        1.10612425       8.94483953       9.33528314       0.30479926      -0.11086075      -0.02000204      -0.07496239      -0.20438669       0.06886338
H        1.40053996       8.39352069       7.64852592      -0.23042959      -0.28384451      -0.05820544      -0.09389681       0.02351857       0.05574270
H        2.00467820      10.28958812       5.95112453       0.06073680       0.19470295       0.38878035       0.07801770      -0.09951540      -0.05109120
H        2.29536152      11.87314244       6.67181708       0.19035744      -0.88453910       0.31556689      -0.07527138       0.07072496      -0.04468483
H        6.13723442      11.33451123      13.16518303      -0.02289930      -0.24361232       0.15859461      -0.00829024      -0.15482438      -0.18922760
H        6.01875662      13.62794916      13.76590316       0.16244025       0.03269294       0.63829644      -0.07332675       0.12482859       0.04570052
H        5.78026531      14.17400478      12.11960095       0.06206097       0.20356762       0.06980170      -0.06443288      -0.06138155      -0.01650182
H        5.49599106      12.31506314      10.34954131       0.19529444       0.33189270      -0.09642882       0.06831813      -0.03317843       0.12896247
H       15.48827967      12.85312401      13.78945137      -0.15521824       0.43287168       0.13432375      -0.13364938      -0.05787381       0.03361168
C        1.85996835      10.37204112       8.02091239       0.09971220       0.03680230       1.22829889      -0.35321185       0.62291133      -0.00551776
C        5.94418788      12.12133594      12.39928410       0.04349339       0.28744434       0.49388637       0.51191793       0.24652136      -0.62155321
N        1.42475246       9.14313772       8.34773220       0.04768421       0.27754033      -0.10390303      -0.53946384      -0.19595383      -0.15963789
N        2.18991380      10.83762154       6.82893527      -0.13192904       0.62525349      -1.76890531       0.21524658       0.00481551       0.76134889
N        5.88100448      13.39888858      12.79562024      -0.07975324       0.27855379      -0.91427651      -0.13434763      -0.03889199       0.43147749
N        5.76532905      11.70557498      11.17872014      -0.24908552      -1.03806364      -0.42752738       0.38997337       0.37259322       0.40151530
Pb       3.65026599       7.24258369      12.30035221      -0.17154978       0.28014022       0.05507484      -0.26048280       1.07041131      -2.32645848
Pb      31.72361786       6.90545908      11.92724195      -0.14882833       0.08146170       0.25670260      -2.18124483      -0.52784527      -1.75536003
I        5.38578005       8.92235214      14.29149392       0.17520328       0.08420844       0.19272648      -0.37500488      -0.37010384       1.06703951
I        2.83070257      14.26937575      14.38984374      -0.00931858       0.14492658       0.12641465       1.41244134      -0.89793775       1.08060696
I        5.81537650       8.20661858       9.94909662      -0.06058763      -0.01967332       0.16516946       0.36858548       0.52282475      -1.10736570
I        2.75860192      13.79176416      10.07771995       0.31199967       0.00205819      -0.25576925       2.80026373      -0.06153140       1.19134587
I        6.63248784      12.48606016       7.55781724      -0.19440586       0.13238279       0.06665180       0.60117720       0.20619157      -1.21540733
I        1.57665024       9.89609197      12.03951166       0.16419836       0.10359553       0.06045498       1.90998699       0.50295292      -2.74373770
H        9.98537495       3.23195420      11.76329406       0.13387632      -0.56228093      -0.66745418       0.14236637      -0.06988614       0.08552454
H       10.17114556       3.84566763      13.94274037      -0.03546995       0.63505776      -0.05420234      -0.07655940      -0.06280091      -0.08201111
H       10.75625510       2.27030692      14.54604581      -0.09208401       0.70758993      -0.80505106      -0.10642240      -0.00964659      -0.17151842
H       11.16877024       0.48948818      12.87628907      -0.32643064      -0.05508788      -0.18638747       0.00945139       0.08873853      -0.04313743
H       10.63389845       0.98960039      11.14179605       0.06011219      -0.32977448       0.31572063       0.04579199       0.06939884       0.11433173
H       13.96933292       5.49451920       9.33358803      -0.01962267       0.42248711       0.66048311      -0.08299845       0.17602239       0.06767052
H       13.68743991       6.48374367       7.18120499      -0.10823837       1.65306568      -0.00823501      -0.14489445      -0.14768558       0.00295771
H       13.76018549       4.98928546       6.29377796       0.09217739       0.55974010       0.84812582       0.11366495      -0.18149379      -0.12121508
H       14.18457620       2.83983999       7.83184883       0.04085721      -0.30892756      -0.04314538      -0.03307393       0.00163053      -0.03623728
H       14.31136888       3.15797495       9.58508404      -0.11455351      -0.16909380       0.97553592       0.00220479       0.02681027       0.02807120
C       10.38239866       2.43371220      12.47488763      -0.32985777       0.69816127       1.04708556       0.10417097       0.32522855      -0.46398108
C       13.97882928       4.84256885       8.45381104       0.05927040       0.02195781      -0.98284326      -0.86251274      -0.15691921       0.36879618
N       10.45386236       2.88696193      13.71975051       0.20473966      -1.74732623       1.27639471      -0.11685962       0.98258078       0.04794839
N       10.69799375       1.19243011      12.15432915       0.33651063       0.56320636      -0.83246769      -0.14516202      -0.30484772       0.09774470
N       13.85955077       5.49880383       7.25891012       0.03619526      -3.00209226      -0.19744152      -0.19304513       0.24687407      -0.09509358
N       14.10954300       3.50902526       8.64100520       0.03929081       0.73351900      -1.21893243       0.24014614       0.47963570       0.00011691
Pb      12.83521988      30.46189641       7.63540883       0.35111037      -0.08395643      -0.36032297       0.32925760       2.17775918       2.32591262
Pb       8.92565432      30.44071015       7.72656873      -0.20762390       0.19498521      -0.49129672      -1.20926518       1.30517859      -0.84062172
I       14.61369275       0.22736704      10.56967838       0.06616713      -0.04834542      -0.19475706      -0.03313235      -0.42880145      -0.38458253
I        9.76474420       5.97390706      10.51005742      -0.23457663      -0.35137686      -0.28458860      -0.37464609       0.02582532       2.38907264
I       14.78327746       1.05057306      15.01978310      -0.13593668       0.12407358      -0.16207225      -1.18694556      -0.71322530      -0.86272433
I        9.77496531       6.16040020      14.82201687      -0.09025022       0.40113336       0.14552886      -0.21583494      -0.92689108       1.75828249
I       13.60494446       4.64175934      12.44935253      -0.02132678      -0.08733336       0.00361866      -3.29319255      -2.27068398      -0.02608446
I       10.66198600       1.82864116       8.60595215      -0.07885781       0.25684177      -0.15925095       0.88974428       0.15216045       0.17339748
H        9.66479577      11.16881255       8.74475432       0.29479522      -0.34106937      -0.06001129      -0.23955846       0.07350487      -0.02157596
H        9.96449299      11.55191492       6.49057363      -0.04822203      -0.29619817       0.16256263       0.13540294      -0.01276971       0.00736829
H        9.78000197       9.88987843       5.99400667       0.18592937       0.51736832       0.98142054      -0.02104816      -0.09210956      -0.14656273
H        9.57636725       8.23135793       7.96592136       0.08047078       0.50510739       0.45624568       0.03176353      -0.09277305      -0.07803615
H        9.49811556       8.93131682       9.57261406       0.00809347       0.16110860       0.32575058       0.24165491       0.03973877      -0.06101834
H       14.58418369      10.96719651      12.71551174      -0.11175545      -0.25537729       0.00823404      -0.05035347      -0.23725725      -0.12850261
H       13.96361250      10.91101175      10.42498421       0.24130090       1.65214081      -0.03227153      -0.01074663      -0.05794843       0.01914907
H       14.37690232      12.73003582      10.18403991      -0.03058526      -0.82509008       0.45798315      -0.01049347       0.01874801       0.03584375
H       15.29364880      13.84479142      12.28528973       0.07011716       1.24781110      -0.53589235      -0.02411807      -0.06351692      -0.25804423
H        5.84902854      10.66098102      11.01322872      -0.01619731       0.29381409      -0.06733342       0.18531222       0.02955390      -0.14087297
C        9.72157182      10.28910466       8.05789283      -0.61718713      -0.08680075       0.93716413       0.29262761      -0.04985475      -0.37464698
C       14.66661725      11.89436062      12.12242140       0.27565495       0.31602545      -0.57590559       0.08803662       0.30551949       0.79000523
N        9.83702723      10.56879960       6.79487423       0.13079603      -0.02478523      -1.88422479       0.46748525       0.77516184      -0.02358843
N        9.56722250       9.08156242       8.57236791       0.07802658      -0.66347238      -1.22669373      -0.41258319      -0.18786595      -0.52740546
N       14.29033873      11.87247385      10.80856377      -0.33796283      -1.23367819       0.06061047      -0.10232094      -0.15276280      -0.49489114
N       15.17247462      12.97959881      12.77056807      -0.00655958      -1.37823873       0.70538359       0.37899876       0.68932064      -0.14430679
Pb      11.78262113       7.30279425      12.42691339       0.10999132       0.01734700       0.11825688       1.49577166      -0.28123108       2.81490219
Pb       7.80108496       7.48325456      12.50945007      -0.14963532      -0.10806753       0.01481969       3.14936994      -0.15726251       1.74844986
I       13.76556253       8.77370576      14.42554225       0.07541883       0.11507406       0.08828077       1.32844417       0.65200206       1.29416344
I       10.84659259      14.03801972      14.27134036       0.06613705       0.07178772       0.32590204       2.16756671      -0.96634322       0.25911076
I       13.61762271       8.27882913       9.99626321      -0.05762239       0.20939465      -0.15910318      -1.41880804       0.32601347       0.68555797
I       10.74803343      13.49324845       9.84436664      -0.04229999      -0.25041684       0.37507080      -0.09373836       0.87014968       0.89316590