768
Lattice="32.0609120611585 -0.5112882221814271 -0.5475189371990378 0.2896562838185469 31.11650681404145 -0.5358671673453327 0.3216333527679892 0.2519783857508381 17.761452272036312" Properties=species:S:1:pos:R:3:forces:R:3:momenta:R:3 pbc="T T T"
H        1.80382940       2.96109442       3.14553045      -0.06060741       0.48752747      -0.26191100      -0.01903167       0.01098367      -0.24573131
H        1.19147851       3.22713149       5.42063694       0.06480681       0.12257514       0.07234360      -0.11237024      -0.08494535       0.07323137
H        1.26655248       1.52433688       5.79157626       0.26031464      -0.31936779       0.16140765       0.12978738       0.03267230       0.16112565
H        2.17707238       0.04566564       3.78852829      -0.10185093       0.32473518       0.06826438      -0.01930418       0.14726842      -0.10798890
H        2.37000520       0.91642474       2.23979890      -0.17044092       0.17188677       0.86185765      -0.22244644       0.10496545       0.01451314
H        5.49403788       3.28337931      16.23110977      -0.52127280      -0.23178711      -0.52336071      -0.16970840      -0.10933251       0.09405901
H        5.71050852       2.20636683       0.55304627       0.04445329      -0.11127712       0.00436041       0.04428234      -0.23470691      -0.04230978
H        5.72459432       3.79454495       1.37377367      -0.27416484      -0.84954656      -0.97726602       0.10310373       0.11854427       0.08361516
H        5.30609840       6.00270998      17.51148684      -0.32678184       0.18620947       0.21593954       0.11865108       0.09631322      -0.05466333
H        4.88619273       5.62056636      15.81473454       0.21390744      -0.52467655       0.48444315       0.22895003       0.06219039       0.03146110
C        1.77730833       2.10716235       3.81853734       0.37597260      -1.14196247       0.12692911      -0.03031548      -0.04358012      -0.07828010
C        5.42559624       3.99305579      17.05011426       0.36937072       0.25629370       0.04032237       0.28967878       0.99399671       0.52944706
N        1.43867106       2.27827064       5.08834682      -0.47235718       0.52103395       0.21868653       0.03978689      -0.33197277       0.11863352
N        2.12938605       0.94542638       3.28117359       0.15733041      -0.69159927      -1.10233909       0.13734220       0.20084104       0.02545710
N        5.49575543       3.21681729       0.46791427       0.14638053       1.39431203       0.89301217      -0.46725223       0.32669457       0.39383344
N        5.07301161       5.26299510      16.79077137       0.36106599      -0.20947396      -0.04928766      -0.48321454      -0.13083110       0.01832130
Pb       4.67311396      29.94071856      16.73219767      -0.31858313       0.25436341       0.36075448       0.80969551       0.86535465      -1.01966920
Pb      32.53132615      29.49127868      16.42527855       0.39779529       0.22352053       0.37579334      -2.99630747      -0.82998453       0.13673066
I        6.17349592      30.97114008       1.53788295       0.16831801      -0.11908426      -0.30078244       0.49997534       0.68005330      -1.76800922
I        1.44689966       5.10730800       1.55516639       0.15829004       0.11717277       0.04874414       0.76911244       0.89600878       0.60964205
I        6.37700476       0.26884063       6.53688063      -0.01791509       0.13359757      -0.01217569      -1.81369485       0.13616171      -0.23190733
I        1.38071127       5.52843731       6.03075311       0.01298589       0.14117964       0.38019336      -0.47399706      -0.07007057      -0.07917386
I        5.45720171       4.08059100       4.22521819      -0.07958699       0.14619611      -0.05901257       0.45506053       2.20839322      -0.41757293
I        2.24132240       1.40768467      17.49810696       0.19394721       0.04822357       0.00690016      -0.98942888      -1.12845603       1.81668806
H        1.41780864      10.28069647       0.37296035       0.37379973       0.28901990      -0.25257314       0.01906951      -0.17440995      -0.04345693
H        1.06790719       8.06938077       0.69480736      -0.01006853      -0.04029519      -0.21483641       0.07968942      -0.10609381      -0.03931938
H        1.57938120       7.80695053      16.76035091       0.09346282       1.11331322       0.64131664       0.02571977      -0.23986901       0.02259776
H        2.24378308       9.77231563      15.20808672      -0.10711330      -0.23044037      -0.76114319       0.19109174      -0.02083954       0.11049443
H        2.28405830      11.37926797      15.86665260       0.16256541       0.88718090      -0.13205875      -0.07281618      -0.03938798       0.04162764
H        5.66632799      10.73648517       4.82217165       0.07633496       0.80340818      -0.56170155       0.00638253      -0.16727278      -0.11700622
H        5.83114661      12.91766416       5.42265185       0.37108240       0.43450625      -0.62441326       0.12107846      -0.13176676      -0.05253682
H        5.99696388      13.49983539       3.72563147      -0.12721619       1.42701349      -0.64847961       0.03200188       0.08540354       0.15879034
H        5.37091669      11.62543970       1.94557780       0.13332706       0.79422708      -0.38284998       0.05903735      -0.15390870      -0.13532008
H       14.09892977      12.62252146       5.46390973      -0.05579767      -0.49599397      -0.21800278       0.12028609      -0.00717382      -0.14981327
C        1.87029120       9.86925202      17.22488935      -0.80885018       0.35270729      -0.54041655       0.12291195      -0.20230367       0.53378731
C        5.68638159      11.53434872       4.02631655      -0.74066214      -1.41624679      -0.09309208      -0.65699933       0.22260898      -0.18899452
N        1.54069083       8.60075493      17.46979426       0.20735965      -1.40756163      -0.31842749       0.36526493      -0.15642671       0.05198320
N        2.17464061      10.38968741      16.01319348       0.04760137      -1.16493380       1.60595964       0.48406685       0.00261976      -0.61659665
N        5.86010069      12.77618727       4.39069262       0.11607741      -1.32291486       1.62147059       0.25569817       0.63752346       0.98471602
N        5.42501522      11.09091143       2.80769121      -0.01211434      -2.23061014       0.22967856      -0.38284245      -0.25723465       0.35014656
Pb       3.38089932       6.61463384       3.77621478       0.00268234      -0.14943227      -0.20088094      -1.65099428      -1.29264066      -0.46177960
Pb      31.46864620       5.92942576       3.17454743      -0.25813318       0.11873670      -0.13342167       1.58926003      -0.67944662      -0.80478211
I        5.31533019       8.27855137       5.84988986      -0.10357996      -0.11258103       0.09633888       1.22436987      -1.48523667      -1.94181432
I        2.19525467      13.57591322       5.89407384      -0.05900307       0.08245789      -0.23879361       0.56331514      -0.30846404      -1.18873808
I        5.40099340       7.80727428       1.51703802      -0.01743280      -0.11716931      -0.16387718      -1.12797004       0.57197055       0.15262178
I        2.26419815      12.69167177       1.48914540      -0.05466564       0.29071527      -0.25186229       0.97538146      -0.81057460      -1.25210907
I        6.55520789      11.91618563      16.96716344       0.09223254       0.11552400      -0.09760907       0.50631469       0.68122138       1.02265537
I        1.30286075       9.02756443       3.67179114       0.08807360       0.23412613      -0.22234446       0.47025016       0.73903992       0.01290503
H       10.09540043       2.34756918       3.26310672       0.14380382      -0.16255020       0.22566162       0.07164474      -0.08058940       0.05256749
H        9.65184292       3.21270195       5.44052951       0.06495546      -0.23681801      -0.15290744      -0.03882790      -0.09000500      -0.08186646
H        9.79658696       1.59068746       6.17892118      -0.30115277       0.84700802      -0.62009213       0.03548879       0.01471285       0.02780053
H       10.45905186      30.76270459       4.08186592      -0.03807059      -0.11182728      -0.05591822       0.02232384      -0.15173205       0.03097709
H       10.32987645       0.01665814       2.90472109       0.07355220       0.25645741      -0.50787468      -0.00051634      -0.07364335       0.13381328
H       13.12918994       4.52048103       0.58120297       0.17805903      -0.05600355       0.29299631      -0.01556972       0.26267264       0.06378236
H       14.23338217       5.47030403      16.06134909      -0.08538572      -0.68352189       0.35190009      -0.03504784      -0.02377616       0.24269855
H       14.47268267       3.84152281      15.50884178       0.02072020       0.03162101       0.29736219      -0.11098848       0.05920796       0.25990712
H       14.00658453       1.98610705      17.32763279       0.08901796       0.63772367       0.63671767       0.05174844      -0.03505566      -0.18403752
H       13.22111028       2.24196866       1.26611653      -0.03441339       0.02420760       0.40914070       0.13816379      -0.07878798      -0.05535066
C       10.07113656       1.65411897       4.14212366      -0.96244092       0.23001741      -2.17666677      -0.12571871      -0.09744085      -0.06262436
C       13.48490774       3.74470527      -0.14857641       0.04268360       1.19643980      -0.81441763       0.71856273       0.37896403      -0.28202859
N        9.71173035       2.18097358       5.30967021       0.70112682      -0.88896812       2.00778883      -0.19745008      -0.50205017       0.37534124
N       10.18284944       0.35954400       3.85861796       0.31970897       0.05464980       1.23056013       0.17290359       0.60824819      -0.31681455
N       14.23544775       4.45291430      16.32217188      -0.20404283       0.43338124      -0.40802071       0.34248716       0.44145702      -0.14725593
N       13.47802407       2.50217316       0.27164877       0.00865793      -1.33184023      -0.86047399       0.26783333      -0.15840883       0.39900108
Pb      12.57853423      30.14969959      16.96049826       0.31988306      -0.11548880      -0.08780103       0.09093885      -1.11809736       1.29380473
Pb       8.68765433      30.12985571      17.09171920      -0.16289941      -0.08575951      -0.21112457       0.44874299      -4.63315293      -0.26026049
I       14.35092043      30.69643100       1.57118531       0.09624467      -0.20950212      -0.12690712       1.28192880       1.28300439       0.35394834
I        9.12626427       4.84558181       1.77998008      -0.10107312       0.24111254       0.04954747       1.06320144      -0.24761042       1.32855535
I       14.22133678       0.32404400       6.38627259      -0.05320181      -0.04181529       0.08469562       0.22526494      -0.02246385      -1.44188232
I        9.51108411       5.62660044       6.06545155      -0.02295483       0.12407597      -0.03913491       1.26931569      -1.61054557      -0.59073282
I       13.39646254       3.79246009       3.72882308      -0.29647163      -0.02498618      -0.02561033       0.40854817      -0.00398603       0.20461851
I       10.15374262       1.30564309       0.13814088      -0.16837004      -0.08547896      -0.06434916       2.05268506       0.82923171      -0.36429168
H        9.91405948      10.07964600       0.40110662      -0.16196794      -0.70143737      -0.52848268      -0.26063293      -0.03040992      -0.04450774
H       10.45937512      11.13443410      16.01940057      -0.11947344       0.53965453      -0.58976656      -0.01729150      -0.32056928       0.13503327
H       10.05554966       9.58214507      15.25506131      -0.12701237      -0.26129427      -0.78342719      -0.26360482       0.09890384      -0.13331065
H        9.64816169       7.76100156      16.58046922      -0.03148462      -0.84707131       0.20524251       0.04763025       0.05430221       0.04912797
H        9.47519127       7.64771868       0.65842906      -0.17521036       0.02781000       0.41984604       0.00862186      -0.15241684       0.15019710
H       14.25318364      10.30437958       4.59476346      -0.10926322      -0.10290255      -0.02843492      -0.03430205      -0.18997917      -0.12707821
H       13.83884464       9.88174835       2.35503929      -0.04051019       0.10059932      -0.15289088       0.09498513      -0.16474084      -0.21001079
H       13.53569871      11.62207401       1.94186709       0.15988034       0.87899495      -1.11787139      -0.08935753      -0.09232973       0.00129072
H       13.72713633      13.27001942       3.79436032       0.19560469      -0.62792668       0.93157503       0.11870939       0.21018250      -0.09661027
H        5.34133048      10.03139108       2.64143860       0.28126959       1.62365903       0.48511947      -0.01487805      -0.22162533       0.10003814
C       10.04311293       9.63731990      17.27794939       0.32036554       0.68027377       1.88222429       0.47634054      -0.33748071       0.79266599
C       14.00924665      11.18306000       3.91535156       0.39879215       0.46666974       0.09723356      -0.34616110      -0.10365274      -0.33426862
N       10.11134847      10.15231054      16.08510913       0.40201221       0.44551322      -0.33104180      -0.18064907      -0.16497658       0.40719891
N        9.47721881       8.09599897      -0.29002332      -0.15392145      -0.08851281      -0.29630132       0.03454842       0.54072858       0.21624906
N       13.79395877      10.89107109       2.62670549       0.00561671      -0.41706491       2.54986507      -0.79976033      -0.00231665      -0.66363526
N       14.00812218      12.42567866       4.45569149      -0.53470192       0.28259176      -2.28450170      -0.80427113       0.01066341      -0.09036442
Pb      11.28744353       6.49376209       3.35303303       0.35708529      -0.08703088       0.41076198      -0.55813472       0.86050183      -0.78575797
Pb       7.33322087       6.80629358       3.90242010       0.08019519      -0.44816992      -0.02675450      -1.26444909      -1.09963498       2.14644239
I       13.62050385       7.63091566       5.56264008      -0.16391566       0.01959282       0.07298264       0.10698874      -1.07182914      -0.58537457
I       10.56337451      13.24300124       5.98196291      -0.34073585       0.24638876       0.17531526       2.27133249       0.12722919      -1.41115103
I       13.38463777       7.55091632       1.15285147       0.03277317      -0.08375977      -0.00216557       0.54857353      -1.28284722      -0.07642950
I       10.25747860      12.68643412       1.39933391       0.06142736      -0.00337263       0.28581412       0.21527850       0.15903846      -0.55883341
I       14.37889270      11.85995253      16.73601194      -0.18507799      -0.22347685       0.09477386       2.12461745      -2.43896428      -1.79113983
I        9.35286093       9.17106273       3.49327244       0.22897603      -0.04667149      -0.07598441      -2.10724130       0.39208664       1.34368784
H        1.96464608       3.08708361      12.02625659      -0.06060741       0.48752747      -0.26191100      -0.01903167       0.01098367      -0.24573131
H        1.35229519       3.35312068      14.30136308       0.06480681       0.12257514       0.07234360      -0.11237024      -0.08494535       0.07323137
H        1.42736916       1.65032607      14.67230240       0.26031464      -0.31936779       0.16140765       0.12978738       0.03267230       0.16112565
H        2.33788906       0.17165483      12.66925443      -0.10185093       0.32473518       0.06826438      -0.01930418       0.14726842      -0.10798890
H        2.53082188       1.04241393      11.12052504      -0.17044092       0.17188677       0.86185765      -0.22244644       0.10496545       0.01451314
H        5.33322121       3.15739011       7.35038364      -0.52127280      -0.23178711      -0.52336071      -0.16970840      -0.10933251       0.09405901
H        5.87132520       2.33235602       9.43377241       0.04445329      -0.11127712       0.00436041       0.04428234      -0.23470691      -0.04230978
H        5.88541100       3.92053414      10.25449981      -0.27416484      -0.84954656      -0.97726602       0.10310373       0.11854427       0.08361516
H        5.14528173       5.87672078       8.63076071      -0.32678184       0.18620947       0.21593954       0.11865108       0.09631322      -0.05466333
H        4.72537606       5.49457716       6.93400841       0.21390744      -0.52467655       0.48444315       0.22895003       0.06219039       0.03146110
C        1.93812501       2.23315154      12.69926348       0.37597260      -1.14196247       0.12692911      -0.03031548      -0.04358012      -0.07828010
C        5.26477957       3.86706659       8.16938813       0.36937072       0.25629370       0.04032237       0.28967878       0.99399671       0.52944706
N        1.59948774       2.40425983      13.96907296      -0.47235718       0.52103395       0.21868653       0.03978689      -0.33197277       0.11863352
N        2.29020273       1.07141557      12.16189973       0.15733041      -0.69159927      -1.10233909       0.13734220       0.20084104       0.02545710
N        5.65657211       3.34280648       9.34864041       0.14638053       1.39431203       0.89301217      -0.46725223       0.32669457       0.39383344
N        4.91219494       5.13700590       7.91004524       0.36106599      -0.20947396      -0.04928766      -0.48321454      -0.13083110       0.01832130
Pb       4.51229728      29.81472937       7.85147154      -0.31858313       0.25436341       0.36075448       0.80969551       0.86535465      -1.01966920
Pb      32.37050947      29.36528948       7.54455241       0.39779529       0.22352053       0.37579334      -2.99630747      -0.82998453       0.13673066
I        6.33431260      31.09712928      10.41860909       0.16831801      -0.11908426      -0.30078244       0.49997534       0.68005330      -1.76800922
I        1.60771634       5.23329719      10.43589253       0.15829004       0.11717277       0.04874414       0.76911244       0.89600878       0.60964205
I        6.53782144       0.39482982      15.41760677      -0.01791509       0.13359757      -0.01217569      -1.81369485       0.13616171      -0.23190733
I        1.54152795       5.65442650      14.91147925       0.01298589       0.14117964       0.38019336      -0.47399706      -0.07007057      -0.07917386
I        5.61801839       4.20658019      13.10594433      -0.07958699       0.14619611      -0.05901257       0.45506053       2.20839322      -0.41757293
I        2.08050573       1.28169547       8.61738083       0.19394721       0.04822357       0.00690016      -0.98942888      -1.12845603       1.81668806
H        1.57862532      10.40668566       9.25368649       0.37379973       0.28901990      -0.25257314       0.01906951      -0.17440995      -0.04345693
H        1.22872387       8.19536996       9.57553350      -0.01006853      -0.04029519      -0.21483641       0.07968942      -0.10609381      -0.03931938
H        1.41856453       7.68096133       7.87962478       0.09346282       1.11331322       0.64131664       0.02571977      -0.23986901       0.02259776
H        2.08296641       9.64632643       6.32736059      -0.10711330      -0.23044037      -0.76114319       0.19109174      -0.02083954       0.11049443
H        2.12324163      11.25327877       6.98592647       0.16256541       0.88718090      -0.13205875      -0.07281618      -0.03938798       0.04162764
H        5.82714467      10.86247436      13.70289779       0.07633496       0.80340818      -0.56170155       0.00638253      -0.16727278      -0.11700622
H        5.99196329      13.04365335      14.30337799       0.37108240       0.43450625      -0.62441326       0.12107846      -0.13176676      -0.05253682
H        6.15778056      13.62582458      12.60635761      -0.12721619       1.42701349      -0.64847961       0.03200188       0.08540354       0.15879034
H        5.53173337      11.75142889      10.82630394       0.13332706       0.79422708      -0.38284998       0.05903735      -0.15390870      -0.13532008
H       14.25974645      12.74851065      14.34463587      -0.05579767      -0.49599397      -0.21800278       0.12028609      -0.00717382      -0.14981327
C        1.70947453       9.74326282       8.34416322      -0.80885018       0.35270729      -0.54041655       0.12291195      -0.20230367       0.53378731
C        5.84719827      11.66033791      12.90704269      -0.74066214      -1.41624679      -0.09309208      -0.65699933       0.22260898      -0.18899452
N        1.37987416       8.47476573       8.58906813       0.20735965      -1.40756163      -0.31842749       0.36526493      -0.15642671       0.05198320
N        2.01382394      10.26369821       7.13246735       0.04760137      -1.16493380       1.60595964       0.48406685       0.00261976      -0.61659665
N        6.02091737      12.90217646      13.27141876       0.11607741      -1.32291486       1.62147059       0.25569817       0.63752346       0.98471602
N        5.58583190      11.21690062      11.68841735      -0.01211434      -2.23061014       0.22967856      -0.38284245      -0.25723465       0.35014656
Pb       3.54171600       6.74062303      12.65694092       0.00268234      -0.14943227      -0.20088094      -1.65099428      -1.29264066      -0.46177960
Pb      31.62946288       6.05541495      12.05527357      -0.25813318       0.11873670      -0.13342167       1.58926003      -0.67944662      -0.80478211
I        5.47614687       8.40454056      14.73061600      -0.10357996      -0.11258103       0.09633888       1.22436987      -1.48523667      -1.94181432
I        2.35607135      13.70190241      14.77479998      -0.05900307       0.08245789      -0.23879361       0.56331514      -0.30846404      -1.18873808
I        5.56181008       7.93326347      10.39776416      -0.01743280      -0.11716931      -0.16387718      -1.12797004       0.57197055       0.15262178
I        2.42501483      12.81766096      10.36987154      -0.05466564       0.29071527      -0.25186229       0.97538146      -0.81057460      -1.25210907
I        6.39439122      11.79019643       8.08643731       0.09223254       0.11552400      -0.09760907       0.50631469       0.68122138       1.02265537
I        1.46367743       9.15355362      12.55251728       0.08807360       0.23412613      -0.22234446       0.47025016       0.73903992       0.01290503
H       10.25621711       2.47355837      12.14383286       0.14380382      -0.16255020       0.22566162       0.07164474      -0.08058940       0.05256749
H        9.81265960       3.33869114      14.32125565       0.06495546      -0.23681801      -0.15290744      -0.03882790      -0.09000500      -0.08186646
H        9.95740364       1.71667665      15.05964732      -0.30115277       0.84700802      -0.62009213       0.03548879       0.01471285       0.02780053
H       10.61986854      30.88869379      12.96259206      -0.03807059      -0.11182728      -0.05591822       0.02232384      -0.15173205       0.03097709
H       10.49069313       0.14264733      11.78544723       0.07355220       0.25645741      -0.50787468      -0.00051634      -0.07364335       0.13381328
H       13.29000662       4.64647022       9.46192911       0.17805903      -0.05600355       0.29299631      -0.01556972       0.26267264       0.06378236
H       14.07256550       5.34431483       7.18062296      -0.08538572      -0.68352189       0.35190009      -0.03504784      -0.02377616       0.24269855
H       14.31186600       3.71553361       6.62811565       0.02072020       0.03162101       0.29736219      -0.11098848       0.05920796       0.25990712
H       13.84576786       1.86011785       8.44690666       0.08901796       0.63772367       0.63671767       0.05174844      -0.03505566      -0.18403752
H       13.38192696       2.36795785      10.14684267      -0.03441339       0.02420760       0.40914070       0.13816379      -0.07878798      -0.05535066
C       10.23195324       1.78010816      13.02284980      -0.96244092       0.23001741      -2.17666677      -0.12571871      -0.09744085      -0.06262436
C       13.64572442       3.87069446       8.73214973       0.04268360       1.19643980      -0.81441763       0.71856273       0.37896403      -0.28202859
N        9.87254703       2.30696277      14.19039635       0.70112682      -0.88896812       2.00778883      -0.19745008      -0.50205017       0.37534124
N       10.34366612       0.48553319      12.73934410       0.31970897       0.05464980       1.23056013       0.17290359       0.60824819      -0.31681455
N       14.07463108       4.32692510       7.44144575      -0.20404283       0.43338124      -0.40802071       0.34248716       0.44145702      -0.14725593
N       13.63884075       2.62816235       9.15237491       0.00865793      -1.33184023      -0.86047399       0.26783333      -0.15840883       0.39900108
Pb      12.41771755      30.02371040       8.07977213       0.31988306      -0.11548880      -0.08780103       0.09093885      -1.11809736       1.29380473
Pb       8.52683765      30.00386652       8.21099307      -0.16289941      -0.08575951      -0.21112457       0.44874299      -4.63315293      -0.26026049
I       14.51173711      30.82242020      10.45191145       0.09624467      -0.20950212      -0.12690712       1.28192880       1.28300439       0.35394834
I        9.28708095       4.97157100      10.66070622      -0.10107312       0.24111254       0.04954747       1.06320144      -0.24761042       1.32855535
I       14.38215346       0.45003319      15.26699873      -0.05320181      -0.04181529       0.08469562       0.22526494      -0.02246385      -1.44188232
I        9.67190079       5.75258963      14.94617769      -0.02295483       0.12407597      -0.03913491       1.26931569      -1.61054557      -0.59073282
I       13.55727922       3.91844928      12.60954922      -0.29647163      -0.02498618      -0.02561033       0.40854817      -0.00398603       0.20461851
I       10.31455930       1.43163228       9.01886702      -0.16837004      -0.08547896      -0.06434916       2.05268506       0.82923171      -0.36429168
H       10.07487616      10.20563519       9.28183276      -0.16196794      -0.70143737      -0.52848268      -0.26063293      -0.03040992      -0.04450774
H       10.29855845      11.00844490       7.13867444      -0.11947344       0.53965453      -0.58976656      -0.01729150      -0.32056928       0.13503327
H        9.89473299       9.45615587       6.37433518      -0.12701237      -0.26129427      -0.78342719      -0.26360482       0.09890384      -0.13331065
H        9.48734502       7.63501236       7.69974309      -0.03148462      -0.84707131       0.20524251       0.04763025       0.05430221       0.04912797
H        9.63600795       7.77370787       9.53915520      -0.17521036       0.02781000       0.41984604       0.00862186      -0.15241684       0.15019710
H       14.41400032      10.43036877      13.47548960      -0.10926322      -0.10290255      -0.02843492      -0.03430205      -0.18997917      -0.12707821
H       13.99966132      10.00773754      11.23576543      -0.04051019       0.10059932      -0.15289088       0.09498513      -0.16474084      -0.21001079
H       13.69651539      11.74806320      10.82259323       0.15988034       0.87899495      -1.11787139      -0.08935753      -0.09232973       0.00129072
H       13.88795301      13.39600861      12.67508646       0.19560469      -0.62792668       0.93157503       0.11870939       0.21018250      -0.09661027
H        5.50214716      10.15738027      11.52216474       0.28126959       1.62365903       0.48511947      -0.01487805      -0.22162533       0.10003814
C        9.88229626       9.51133070       8.39722326       0.32036554       0.68027377       1.88222429       0.47634054      -0.33748071       0.79266599
C       14.17006333      11.30904919      12.79607770       0.39879215       0.46666974       0.09723356      -0.34616110      -0.10365274      -0.33426862
N        9.95053180      10.02632134       7.20438300       0.40201221       0.44551322      -0.33104180      -0.18064907      -0.16497658       0.40719891
N        9.63803549       8.22198816       8.59070282      -0.15392145      -0.08851281      -0.29630132       0.03454842       0.54072858       0.21624906
N       13.95477545      11.01706028      11.50743163       0.00561671      -0.41706491       2.54986507      -0.79976033      -0.00231665      -0.66363526
N       14.16893886      12.55166785      13.33641763      -0.53470192       0.28259176      -2.28450170      -0.80427113       0.01066341      -0.09036442
Pb      11.44826021       6.61975128      12.23375917       0.35708529      -0.08703088       0.41076198      -0.55813472       0.86050183      -0.78575797
Pb       7.49403755       6.93228277      12.78314624       0.08019519      -0.44816992      -0.02675450      -1.26444909      -1.09963498       2.14644239
I       13.78132053       7.75690485      14.44336622      -0.16391566       0.01959282       0.07298264       0.10698874      -1.07182914      -0.58537457
I       10.72419119      13.36899043      14.86268905      -0.34073585       0.24638876       0.17531526       2.27133249       0.12722919      -1.41115103
I       13.54545445       7.67690551      10.03357761       0.03277317      -0.08375977      -0.00216557       0.54857353      -1.28284722      -0.07642950
I       10.41829528      12.81242331      10.28006005       0.06142736      -0.00337263       0.28581412       0.21527850       0.15903846      -0.55883341