768
Lattice="40.227587415121015 -0.7682833808457515 1.3263590934115383 0.394859312395313 23.52400323722727 0.25591382290307674 -0.5366011814355014 -0.10491616676151522 18.726843227480614" Properties=species:S:1:pos:R:3:forces:R:3:momenta:R:3 energy=-3622.2028198884755 stress="0.0 0.0 0.0 0.0 0.0 0.0 0.0 0.0 0.0" pbc="T T T"
H        7.15317709       1.21167862       3.77518106       0.23358039       0.00352575       0.36596810      -0.39341311      -0.07423408       0.01391232
H       11.81258829      12.43319878       2.38006692      -0.47016610       0.57512208       0.20126518      -0.15744536      -0.01460661      -0.00595301
H        0.85880914       7.68421443       4.41586998       0.68421669       0.74406129       0.57015359       0.08781364      -0.03770529       0.10886782
H       16.69021671       8.00703898       3.23085772      -0.60068129      -0.63025562       0.48637501      -0.02756388       0.12426845       0.30012524
H        7.68341681       2.26946309       7.24229613      -2.43917643      -0.77420440       1.01831015      -0.06320392       0.29890840      -0.21015855
H       11.18309006      10.57575938       1.03936069       0.18632774       0.30816575       0.04347307      -0.05085395       0.09129683       0.28029035
H        4.06055913       6.48512352       7.92686140       0.08381885      -1.24299113      -0.62492598       0.04667431       0.05986069       0.00027126
H       14.78326087       8.13653502       1.83834072       0.02629809       0.61323296      -0.34160043      -0.03731401       0.12930954      -0.14386097
H        4.30617647       2.15925354       4.33432207       2.19544109      -1.34510523       0.21560565       0.06721411       0.30324876      -0.10313320
H       13.04495825      10.42675181       0.35375034       1.11364786      -0.79096760      -0.07172392       0.00728113      -0.41959623       0.26903864
H        4.74900506       7.99778270       8.62300104      -1.56242024      -1.15788497       0.07816021       0.24044257       0.21918309      -0.23407706
H       14.36772453       6.13335299       1.59521626      -1.74312121      -0.67135271      -0.09252186       0.02586618      -0.03974287       0.08970509
H        5.82379498       3.83051634       3.18386236       0.32863688       0.32950691       0.01725982       0.24022382       0.03357879       0.03519590
H       14.97660444      11.91373582       1.42726303       0.71725549       0.00544636      -0.16963914      -0.34587894       0.06724511      -0.30101717
H        3.87859475       7.35760261       3.70387354       0.84539259       0.22365640      -0.01664560       0.25264337      -0.00745872      -0.14153809
H       15.86430097       4.36072143       2.93162299       0.55206862       1.26202917      -0.51900845       0.08107516       0.15651303      -0.03260157
H        7.55843132       3.45277783       3.04149363       0.02307830       0.25866478      -0.29078876      -0.23315714      -0.10569097       0.06641631
H       14.26083489      13.27807754       2.35982805       0.08664389       0.59652525       0.46761974      -0.38753268      -0.18699366       0.16135019
H        2.53503126       6.13700779       3.41198375       0.17815693       1.06735700       0.57038944      -0.00583548       0.02648053      -0.05012582
H       15.04466530       7.67042878       6.05027542       0.52860663      -0.46785152       0.46902420       0.17294581      -0.48274073      -0.12834050
C        6.35103269       1.99332173       3.81168967       1.28379105      -0.09496024      -0.62173227       0.94976665       0.17219534      -0.01484506
C       12.71144965      11.92675628       1.79841263      -0.15255978       0.19374106      -0.60119314       0.59035149       0.74207106      -0.85071985
C        1.99409436       8.01522241       4.41836226      -1.31638186       0.05833241       0.08978894      -0.53771500       0.29913738      -0.28454941
C       16.00963321       6.92525725       2.91021871       0.27719898       2.37553176      -2.81117161      -0.14691059      -0.35280946       0.45557941
N        5.20163706       1.53053646       4.17164180      -2.45137876      -0.41174956       1.12829570      -0.01880473      -1.47232829      -0.80373247
N       12.29754935      10.88409744       1.04942752      -0.99205404      -0.00549232       0.05837020       0.60627162       0.43576859      -0.81105443
N        3.92935742       7.27789561       8.52062987       0.63729561       2.45400933       0.50016195       0.83260735      -0.05813158      -0.19421956
N       14.92888484       7.13893626       2.13277002       1.13788963      -0.22031091       0.70369971      -0.60509383      -0.34678679       1.03195556
N        6.63194847       3.24682258       3.41375045      -0.37263903       1.17631652      -1.07626086       1.09716106       2.12400727      -0.09491398
N       14.13040601      12.45114249       1.78009247      -0.63867097      -0.64021333       0.10924834       0.06311921       0.56116743       0.30089647
N        2.86420060       7.10908339       3.82926323       0.37550289      -1.86154211      -1.58407382       0.27933853      -0.70603385      -0.03260201
N       16.40882881       5.54246698       3.07959538       0.34714579      -2.44598948       1.72677582       0.24107654       0.47480205       0.13802634
Pb       0.32958396       2.89819973       1.98784313      -0.36408001      -0.26425901      -0.10684423       1.28435018       1.11753264      -3.03064150
Pb      18.27489658      10.80573336       4.88655578       0.10621791       0.86033818      -0.11740304       2.76644691      -1.13806964      -1.16205420
Pb       8.24077907       8.80951260       1.67633761      -0.74975430      -0.00028258      -0.33300614       4.02684852      -2.21035187      -2.18245529
Pb      10.77028274       5.46726263       3.93037568      -0.15341344       0.01952719       0.08426373       0.45626586      -3.36476518      -2.79354178
I       39.49819879       4.33059686       5.61487076      -0.10921456      -0.14573045      -0.14548310      -0.66397216       1.90536840      -2.40728591
I       39.29920620       8.49715058       2.84104443      -0.10097846       0.13742413      -0.04975811      -0.68759752      -2.36836649       0.92933836
I        9.25530682      10.58639978       3.87017132      -0.02836362       0.25512082       0.33702480       2.85879841      -1.62162568       2.25428863
I        9.62072912       3.71522432       1.35084640      -0.01857647      -0.31484155       0.20288988      -0.29553857      -3.13413299       0.93315616
I       17.22248735       1.71165458       2.47176220       0.09364077      -0.43476149      -0.16254690      -1.71530286       1.88407261       2.31313555
I        1.25646639      12.73245986       4.02832322       0.14113379       0.16035621       0.14640925      -4.15722484      -0.79861318       0.06945094
I       11.11567181       7.76454282       1.64208345       0.14187269      -0.05202283      -0.30985707       0.70757942      -1.08661811      -0.99506014
I        7.22889425       6.47244708       3.61282371       0.06700469      -0.02157899       0.23055840      -1.31175916       0.28496352      -4.66207185
I        3.13207469       3.88269742       1.79661202       0.26335515       0.31359240       0.06635325       0.30837389      -0.89350161      -1.81663404
I       15.45929690       9.94434304       4.71707603      -0.27315088      -0.34737967      -0.14698939      -0.65597833       1.50557329      -0.92960944
I        5.11726966      10.21060124       2.19796999       0.38328769      -0.15467274       0.01055239       0.42926553      -1.12952450      -3.02393167
I       13.47391029       4.16216313       4.30437082      -0.03890623      -0.16310175      -0.10538541      -0.49856906      -0.11559439       3.69930793
H        6.69429608       0.38687761       8.61457882      -0.05321658      -0.39644091      -0.02303103       0.20347150       0.06467141      -0.03085496
H       11.36437506      12.58332690       6.64776710       1.86364985      -0.16952245       0.42996674       0.01543750      -0.16861744      -0.31822714
H        1.74489023       7.11372269       8.24086782      -0.01871635      -0.10072965       0.21534120      -0.08658678      -0.03531294      -0.29227708
H       16.93462709       6.95288401       7.51243289       1.16584742       0.81755752      -0.46544761       0.42087377       0.24323565       0.04607422
H        5.40490599       0.60302595       4.64728188      -1.51524404       0.12734913       0.03190972      -0.15168231       0.04470427      -0.17720010
H       11.37954117      10.83520305       5.50310262      -0.27451924      -0.62287494      -1.10633925       0.21030299      -0.19989109       0.11367875
H        1.71828693       9.70630878       5.71877014       0.52829590       0.26073010      -0.64220875       0.12814624      -0.09254384       0.31436520
H       16.73092609       5.02819479       8.68769719      -0.67254062       0.10886131       0.18076986       0.01977418       0.00951453      -0.16397940
H        5.99715780       3.00604818       7.05782161      -1.10625184       0.80397718      -0.00300898      -0.04291335       0.26636862      -0.13892091
H       13.31489442      10.84026380       5.19763974       0.39059164      -1.12288007      -0.79251846      -0.05458434      -0.19484484       0.00381013
H        3.55305745       9.46699215       5.10948351      -1.08041416      -0.33474300      -0.25186912      -0.01280265       0.01534053       0.00135290
H       14.86920310       4.96154748       8.47327940       1.44529245       0.61295890      -0.29092101       0.04340152      -0.29124735      -0.11455004
H        4.02487914       2.24248257       9.00113467       0.37557814       0.61886418      -0.74467493       0.02198726       0.09976802       0.32049508
H       14.70723005      12.58274229       6.24883645      -0.98906599       0.67719734       0.22331228       0.41201661       0.05175297       0.05627244
H        2.99553457       9.59256963       9.53155355       0.00187448      -0.22051197       0.29377990       0.10458509       0.06012728      -0.05369392
H       14.15044016       6.40811228       6.73846169      -1.40359964      -1.06158233      -0.19998158       0.22637518       0.24371110      -0.25358379
H        4.21894112       0.45411422       9.38201678       1.01051103       0.45151199      -0.13618680      -0.21863469      -0.22149006      -0.09061031
H       13.61535525      13.73836585       7.24595107      -0.07903808      -0.68075791      -0.22294756       0.14057175      -0.02124940      -0.16246881
H        1.23365319       9.28313880       9.36025252      -0.06425617      -0.27820693       0.10899636      -0.01547845      -0.25562601      -0.10369762
H       17.40114655       5.50387365       3.43992530      -0.01884258      -0.45196326       0.60935333      -0.17774275      -0.03531367       0.13947810
C        6.00999282       1.26971726       8.33625880      -0.37039116       0.64111386       0.33021748      -0.46420356      -0.33014768       0.07200881
C       12.49913423      12.24912742       6.32255005      -2.99163559       1.66000640       0.80239018       0.95592457      -0.43501173       0.55374321
C        2.58657906       7.74542340       8.64505314       0.64403410       0.67338463       0.71801867       0.21999305      -0.09932615      -0.59686877
C       16.00865807       6.44081349       7.47673912      -1.15183955      -0.65068364      -0.62950368      -0.03804873       0.05871019       0.81783093
N        6.56833471       2.24572228       7.50602072       3.45643827       0.12664944      -1.09898976      -0.70554786       0.55753418      -0.42325410
N       12.43541607      11.26447826       5.49458010       0.31091261      -0.23695652       0.63184199       0.97475837       0.29864301       0.05295027
N        2.41601334       9.30112045       4.91306229      -0.01899811      -0.15076732       1.02405376      -1.83531569      -0.52434473      -0.87491540
N       15.84038886       5.42813407       8.30338223      -0.00379621      -1.48512363       0.96667926       0.08232592       0.17688814       0.45195761
N        4.71062230       1.38381183       8.92059089      -0.77368335      -1.34604165       0.66774755      -0.22550683       0.34940867      -0.31857941
N       13.60895203      12.78981666       6.78254582       1.81619621       0.51885030       0.19989028      -0.04166162      -1.74425194      -0.13327069
N        2.25797904       8.89111424       9.30045432       0.00700396      -0.46781140      -1.38817471      -1.31164230       0.40009292      -0.42109576
N       15.06770876       6.76526025       6.56523534       0.41603504       2.27315724      -0.22446192      -0.40535885      -0.85112208      -0.51672330
Pb       0.74390319       3.09697620       6.51645338      -0.35919853      -0.38195204      -0.03321086      -0.25311917      -4.08825912       2.33035953
Pb      18.31986818      10.87369999       9.50107930      -0.20796012       0.36102743      -0.15712612      -3.36529419       0.35786098       1.74124741
Pb       8.08297944       8.42901548       6.05460505      -0.02122565      -0.21394578       0.28183758       4.05879301       0.88936705      -0.49488381
Pb      10.57368608       5.02133006       8.84614616      -0.49548618       0.19298819      -0.40846325      -0.77737470      -1.26059675       1.37128203
I       39.64219223       4.14347140       9.89079900       0.01100666       0.23990781       0.26745466       0.28717053       1.84986531      -1.12043593
I       39.35620699       8.68823139       7.54227635       0.00028711      -0.31978666       0.11913998      -0.23408363       4.31946988      -3.22811142
I        9.24310394      10.49158169       8.30901397       0.02497110       0.14887804       0.11543829      -0.11274855      -2.04479819       3.11752436
I        9.77163631       3.33649894       6.04292453      -0.07318736      -0.10893450       0.25588799       0.84775729       1.11724884      -1.86320645
I       17.11792844       1.29739088       6.99051557       0.04897026       0.19136209       0.06692662      -1.88475015       0.49515212       2.44127902
I        0.86230269      12.91899266       8.78938114      -0.02352258       0.03484730       0.05703087      -0.53907578      -1.68117656      -1.44522353
I       11.36718838       7.46393854       6.47032519      -0.17911904      -0.10161516      -0.03876591      -2.22863395       2.99152535       0.29031677
I        7.27021868       6.25586063       8.55811521       0.30644322       0.46451516      -0.09001805      -0.44376042      -0.14591090       0.01558992
I        3.54746515       4.21562399       6.09147138      -0.03222691       0.06108995       0.14733543       2.52880794       1.61525893      -0.35765585
I       15.54680251       9.77383023       9.36118271      -0.08319710      -0.12162537      -0.07409904      -0.39676290      -3.42397508      -0.11142529
I        5.39347177      10.10536692       6.84398159       0.01369482      -0.00843872      -0.10932834       2.08423473       0.55832955       2.24465137
I       13.24328330       3.80678949       8.92172201      -0.06401742      -0.36830233       0.29869324      -2.83346613      -1.40225906      -0.23343287
H        6.66852213       1.30196130      13.24851838       0.32590626      -0.32008324       0.16639352       0.04013115      -0.13902172       0.13891437
H       10.96747364      12.39935212      10.88778848      -0.11768444       0.19566439       0.03499897       0.37326361       0.01482837      -0.08959553
H        0.80479974       7.09183825      12.52272345      -1.57957320      -0.46906766       0.26795886      -0.25822292       0.16708683      -0.20179627
H       16.97995337       6.56284022      10.85565049       0.22297944       0.24546607       0.31726200      -0.18984277      -0.09392890      -0.30418347
H        6.76889353       2.34829522      16.83239517      -1.77713338       0.50503184      -0.04052742       0.21477443      -0.05453051      -0.17962236
H       11.59222868      10.52953048       9.64608832      -0.68314058      -0.55039190      -0.78930253       0.20561985       0.05139949       0.06543597
H        2.52109912       6.58352761      16.73118678      -0.71440826      -0.23417944      -0.11120843      -0.03213307      -0.08540498      -0.16440809
H       14.66308941       7.95856419      11.12846427       0.10197071      -1.68842004       0.88767659       0.18959658       0.17116170       0.00933428
H        3.47595911       1.31397606      12.60976145      -0.26435301       0.06013812       0.49452626       0.29748973      -0.07980077      -0.21287049
H       13.43549700      10.61799515      10.14981859      -0.79471059      -0.24558477      -0.41743406      -0.14622409      -0.10367137      -0.17410084
H        3.81708935       7.33703151      17.98872893      -1.43575722      -0.29736310       0.01369777       0.06680425      -0.15746168      -0.00557525
H       13.43392541       7.12342085      12.47380037       0.08489572      -0.53050966       0.46818376      -0.32568441       0.48161443       0.09319473
H        4.92653454       3.64261454      12.58747867       0.92381330      -0.17113308      -0.03592498       0.09412190      -0.03868450       0.05180732
H       13.75735579      12.19714974      12.35654249      -0.89587902       0.93629787      -0.33088451      -0.13883115      -0.14888923      -0.31643972
H        3.78112336       7.36334628      12.52036711       0.19432799       0.14739618      -0.01476401      -0.12307565       0.09634414       0.24835381
H       15.13954147       5.02808001      13.23840652       1.31668285       0.60273421      -0.03168524      -0.28893169      -0.07227664      -0.02183120
H        6.69231257       3.60392312      12.42565122       1.51959875       0.44186200      -0.44592353      -0.11887736      -0.03949112      -0.19627712
H       12.53879981      13.60914794      12.37255334      -0.15393662       0.36810452       0.23099549      -0.00238832       0.60748235       0.25776169
H        2.85403791       5.91125713      11.99337678      -0.12416868       2.60768948       0.85169217      -0.17769682      -0.07515153       0.24349375
H       14.57071861       8.11094173      15.69533797       0.45439874       1.49751092      -0.67348269      -0.14334444      -0.28354543      -0.00141374
C        5.73008765       1.81058593      13.04196799      -1.37275471       0.03955806       1.00672480       0.36876343      -0.41794956      -1.18454104
C       12.03429103      12.00013548      11.01973800      -1.27509176       0.10496762      -1.19319722      -0.07792860      -0.83444728      -0.02405356
C        1.70870574       7.56700363      12.78776444       3.38530918       0.87244912       0.07296149      -0.07923683      -1.97113566       0.43916075
C       15.91533074       6.33873365      11.72513359      -0.06460171       0.61732286      -1.13533088      -0.22800966       0.07573034      -1.00323312
N        4.46503668       1.04958793      13.10112333       1.58733883       0.39825164      -0.91609634      -0.52268390      -0.15654358      -0.14667294
N       12.36347314      10.93954477      10.16822323       2.07921815       1.31483241       2.21647781      -0.58222226       0.41603476      -0.27528119
N        2.64397950       7.34489698      17.45170372       2.70668349       0.56418609       0.41402921       0.06873753      -0.73507959      -0.38440364
N       14.61334491       7.06856169      11.74294537      -0.81983240       3.11837249      -1.99711209      -0.09451114      -1.63819172      -0.14939512
N        5.87269988       3.22287370      12.84670519      -2.65952356       0.34508241      -0.43166885       1.20563277      -0.47117091       0.57877530
N       12.83438300      12.70878174      11.90323925       1.84910989      -2.24508235       0.17729396      -1.53141023      -0.36196931      -0.42525916
N        2.80458480       7.06711070      12.21211054      -0.97691891      -2.70915768      -0.69792279       0.34381117       0.48121597      -0.00423985
N       16.05254378       5.37262392      12.56420708      -0.13982917      -2.26501520       1.15602051       0.12543246       0.55040435       0.51001815
Pb      -0.05851002       2.90200014      11.22235918       0.11097685      -0.13079443      -0.24091113      -0.13351085       2.93200847       5.17016231
Pb      18.01583341      10.95410438      14.17412567       0.30205681       0.25356352      -0.25871936       2.31632813      -2.67156530      -2.67124958
Pb       8.11080133       8.82162984      10.74046381      -0.66501379      -0.61622215       0.19015635      -5.21543552      -3.00818276      -2.72396880
Pb      10.22992246       5.28661072      13.26225054      -0.58533159      -0.25800695      -0.14901931      -0.06031490      -5.28936071      -1.56739573
I       39.17962874       4.34935549      14.69984263       0.04462183       0.13112633       0.02330235      -3.87838816      -0.12075283       2.29067678
I       39.29792352       8.38241606      12.32840390      -0.13766052       0.05463960      -0.20844439      -4.73913829       2.38868951       2.22203823
I        8.65600273      11.03218577      12.85467569      -0.01612356      -0.18094908       0.44083127       1.05115511       2.96485796      -0.50773951
I        8.61143064       3.22727128      10.75694740       0.80802354       0.15276363       0.14326484      -1.61576647       2.35744560      -1.27529950
I       16.91532609       1.34557262      11.48120831       0.02848773      -0.13245869       0.08818888       1.42967595      -2.79918857       0.03275940
I        0.88734560      12.83406471      13.19586852      -0.12046763      -0.14355354      -0.07582940      -1.10498026       0.51837945      -2.52657189
I       11.45683250       7.28745492      11.13011343      -0.33694806       0.15379754      -0.13059576       1.00577019      -1.66213246      -0.01180958
I        6.76774420       6.52138122      13.22187079       0.68718763       0.62794537      -0.10142581       2.45569643       1.32128358      -0.69284093
I        2.92766020       3.81239845      10.59423316       0.01754434       0.10663801       0.21883358      -0.19508696      -1.01224550       2.57968522
I       15.29235276       9.79900933      14.16795619      -0.60399499       0.45408837      -0.21676625      -0.73646590      -2.27567071      -1.51418988
I        5.07926238       9.90382490      11.02051912       0.51413196       0.07518278      -0.11980027       2.38282680      -1.55868524       2.53458631
I       12.95409414       3.99008297      13.99111146       0.08822433      -0.17874912      -0.22226715       0.03520031      -0.77067455      -0.44193968
H        6.36625916       0.47405848      18.12431182       0.56289011       0.31888239      -0.18654120      -0.03156096      -0.22314791       0.11416296
H       11.12136310      13.02236211      15.48749437      -1.02895882       0.27008454      -0.23666569      -0.03209311      -0.13890656       0.05842936
H        0.51507629       7.71641085      17.64763901       2.09783967       1.10503815       0.53325488       0.18913875       0.03479611       0.07534072
H       16.73907612       7.01199988      15.86266756      -0.54000794      -0.21902759       0.63260819       0.14356893       0.05661332      -0.03275711
H        4.51994565       0.09564409      13.47117777      -0.46146108      -0.48287667       0.33170120       0.21524195      -0.21254945      -0.10119540
H       10.67710257      10.85738173      14.39735620      -0.47872500      -0.21258099      -0.15089638       0.04652558      -0.17837168       0.03215084
H        1.04439281       9.04722184      14.08860310      -0.46916882       0.10801721       0.13232297       0.11668268      -0.17817779       0.05633162
H       17.09269533       5.02794824      17.01675904      -1.48764225       0.02715571      -0.66851897      -0.21482470      -0.44751332       0.05020809
H        5.01128274       2.95391204      17.03288924      -0.30828140       0.82360085      -0.31164837      -0.62290913       0.17224714       0.24763742
H       12.19397720       9.90872577      15.28811461      -1.70069228       1.28004915       0.23167533       0.22592365      -0.11423408       0.16588182
H        2.89207319       9.03209845      13.84479349      -3.12833601      -1.88573023      -0.57067875       0.00194263      -0.39392778      -0.31501306
H       15.29693037       4.64170314      17.28984890      -0.26371558       0.41985406      -0.44528344       0.02457989       0.07176419       0.02462004
H        3.72652818       1.79117590      19.04314541       0.11812260       0.08324506      -0.02910106      -0.34274978       0.16945926      -0.35322782
H       13.49061197      11.23962311      16.55413610       0.35281034       0.44694202       0.80190386       0.08404887      -0.02821803       0.17891894
H        2.84775916       8.90022952      19.94294328       0.34346430       0.27742516      -0.06714307      -0.30960420       0.01367598       0.47980032
H       13.46059049       7.04419547      16.40642265       0.92964887      -0.36759102       0.52903912       0.01408352       0.01344645       0.07812797
H        4.57545431       0.24959084      19.38327232      -0.49467367      -0.39072269       0.35140495      -0.04975014       0.00547452       0.01193324
H       12.97873492      13.08008898      17.00712506       0.43902577      -1.07768741      -0.67164860       0.18853293      -0.12982049      -0.14918697
H        1.02770019       8.98694262      19.82670844       0.16158690       0.13578389      -0.27038363      -0.12798546       0.02728704      -0.02113107
H       17.22210759       4.85404367      12.36772337      -1.07824073      -0.19274484       0.26998203       0.09691592      -0.12163844       0.35301722
C        5.61136054       1.30586528      18.08790665      -1.05838678       0.73259427       0.03355994      -0.58045448       0.20159507      -1.21920886
C       11.76403403      12.04983524      15.64784467       1.18068875      -0.01079260       1.17592394       0.14650169      -0.27140032      -0.55496005
C        1.69381918       7.92954132      18.17265394      -2.66430201      -2.43986753      -1.92882087      -0.84792210       0.72994200       0.55587796
C       15.75856950       6.54271356      16.31788634       0.35703374      -2.66238952      -0.07299382      -0.32143649       0.04925426      -0.55506968
N        5.77004210       2.34172640      17.27055556       2.71949500      -1.26201759      -0.20170823      -1.94863492      -0.48469860       1.40492307
N       11.46604985      10.82537426      15.14021651       2.19593908      -0.96450312      -0.61156955      -0.34113327       1.75281696       0.19024243
N        1.85078383       8.60676890      13.63055615       3.06810793       1.46062055       0.07840357       0.60005309       0.62544328      -0.80826976
N       16.04901014       5.18780259      16.71894049       1.66320271       2.18318943       0.26709034       0.68388231      -0.65342317      -0.19137412
N        4.55468795       1.17002554      18.93737802      -0.19430521      -0.29664310      -0.11968388      -0.62780842       0.63953336      -0.40312048
N       12.84421194      12.14082898      16.49435822      -0.67268280       0.29433950      -0.69729282       0.30441066      -0.11900091      -0.40382110
N        1.88507335       8.74151378      19.28040675      -0.49587252       0.78188178       1.38772420       0.88140427       0.17788564      -0.90610909
N       14.53779631       7.23368070      16.15176518      -1.40731957      -1.35038419       0.61794640       0.19939659       1.01987987       0.22520635
Pb      -0.20549213       3.37490654      15.92860081       0.45846486      -0.35057088       0.03702992       0.44053869       0.97878895      -1.65290959
Pb      18.01411104      10.93536294      18.71134988      -0.02763541       0.23541542       0.52949541      -5.62528759      -0.71594421      -0.21740123
Pb       7.61130299       8.97302177      15.52915913      -0.46689493      -0.16782944      -0.26870477      -0.23208016       0.35201714       3.31393969
Pb       9.87395562       5.39854469      17.83679206       0.12488367       0.15483818      -0.00784817       1.45498437      -0.31304921      -1.68089241
I       38.86330012       4.17017313      19.56897455       0.16711244       0.13654890       0.55374369      -0.83191271       2.58607866       1.04198050
I       38.94677988       8.20804169      16.96110450       0.13951450       0.01529851      -0.22259125       0.07937834      -1.93247100      -0.94482244
I        8.58519172      10.76712238      18.03580744      -0.04544794       0.09583228      -0.08555962      -1.66901750      -2.32153376       4.25473516
I        9.03256470       3.28781653      15.58741698      -0.01597464       0.02769466       0.15737823      -0.99540731      -0.54278588      -0.42683275
I       17.11342175       1.08831737      16.60631536      -0.46804637       0.46264252      -0.10920304       0.52358381      -0.82576596      -0.15716398
I        0.87358177      12.46518782      17.88656787       0.07496730       0.35338689       0.00652759      -3.27082202       2.45528595      -1.20713275
I       10.96928123       7.46882445      15.28060991      -0.23399455       0.15915412       0.22217042      -3.02738199       3.04905763      -0.74352749
I        6.60936286       6.71903256      17.87608037       0.37404633       0.18657120      -0.33653942      -0.59790096       0.27086679       0.54210035
I        2.74441349       4.55467439      15.29250823       0.28223850      -0.34989455       0.23587632      -1.94812337      -2.27845146      -0.16046865
I       14.98375816       9.80330066      18.52160199      -0.03136577       0.04679050       0.05318030      -1.14967386       0.34078748       0.95819505