768
Lattice="25.888783465013457 -0.26065579461610544 0.6964381020346223 0.2808865365786464 25.92206712803773 0.0706842229014887 -0.6430174188924329 -0.04221809821815645 25.838360985299012" Properties=species:S:1:pos:R:3:forces:R:3:momenta:R:3 energy=-3629.448577549555 stress="0.0 0.0 0.0 0.0 0.0 0.0 0.0 0.0 0.0" pbc="T T T"
H        9.21756460      12.98857692       2.78019944       0.35142122       0.54850298       0.18705018      -0.14940976       0.10634715      -0.10027413
H        9.55855158       4.29133011       2.71256876      -0.11871382      -0.75900362      -0.25660517       0.25307595      -0.33959708      -0.02436312
H        7.87881440       3.97249334       8.90145851      -0.10554393      -0.30946855       0.13736173       0.13867982       0.03140804      -0.10754564
H        9.05641165      13.36143224       8.46972317      -0.05318668      -0.35840049       0.21703398       0.05193069      -0.03875385      -0.16248257
H        7.32962257      12.18469395       1.42416192       0.28269363       0.60987556      -0.59739782      -0.07998375      -0.01998052       0.19395856
H        7.49362834       4.41220786       1.20648764       0.58250207       0.69779763       1.33550264       0.26898212      -0.19000985      -0.33807134
H        1.24431527      12.84504742      10.50954606       0.07486662       1.21806290       0.68204403       0.02527722       0.01080417       0.14440706
H       10.07043574      11.92279179      10.25412952      -0.71899690      -0.59244289      -0.23429887       0.38345972      -0.21666494       0.33747054
H        3.70994762       5.41337111       2.12334928       1.08958786      -1.30566422       0.29946477       0.02590556      -0.18161280       0.08135512
H        1.00424079      10.75044364       2.67324041       0.27298305       1.64924539       0.85759351       0.11910050      -0.01187666      -0.23831024
H        0.67062395      11.46578709       9.66101882       0.23244971      -0.04392125      -0.27069798       0.10523415       0.04053800      -0.12539885
H        8.43623875      10.85119725      10.52582451      -0.15704948      -0.05955271      -0.46880846       0.10057878      -0.01916886       0.08345637
H        2.56251040       4.56834380       4.14195287      -0.23410030       0.15395434       0.17167008      -0.12765104      -0.10166266       0.15704572
H        2.75697779      11.14575122       1.08085579      -0.20949263       0.24922991      -0.29312873      -0.05512056      -0.00632921       0.19252055
H        1.86843211      10.91463068       7.45261234      -0.77303320      -1.31239218       0.11637526      -0.01354126      -0.06542604      -0.27340270
H        1.75686613       7.12703790       8.25396355      -0.14116535      -0.39083579       0.56462405       0.05479022       0.01819512       0.22202878
H        9.81166017      11.76785461       4.78518387       0.46083578       0.26678044       0.40153601       0.19373859      -0.08112101      -0.18319491
H        3.70038438      12.58684850       1.24142048       0.93251948       0.85105166      -0.45913907       0.31312591      -0.15010654       0.05195582
H        9.17990015       4.24455805      10.84771802      -0.38619249       0.29226109      -0.63124433      -0.06734427       0.02307699      -0.06824251
H        3.01937851       6.15607487       7.58985944       0.17095532      -0.19388310       0.03598696      -0.13465635       0.12638830       0.01014564
C        8.68076519      12.05802684       3.07421789      -1.59648309      -1.34134927      -0.54445916      -0.68135391      -0.29359673       0.21576353
C        2.26025443      12.39327445       2.61723842       0.97215331       0.90823285       1.35113798       0.17223950       0.14374524      -0.58135708
C        2.27225996      12.47211153       8.79527065      -0.37505147       0.21474709      -0.00876522      -0.07040040      -0.44956825       0.31261762
C        1.98712736       5.17151434       9.09927170      -1.62637328       1.10443401       2.36919453      -0.77166296      -0.04798331      -0.69839182
N        3.15155994       6.23321827       2.23695460      -2.65538285       1.83760836       0.72309661       0.40428970      -0.46783019      -0.15900030
N        1.33198130      11.65125414       3.15349936      -1.70950170      -1.70265856       0.02208882       0.08733051       0.43708532       0.44582637
N        1.31610972      12.27010452       9.67962149      -0.01711142      -0.86418593      -0.33028513      -0.20929376       0.54713168       0.32553083
N        8.98639390      11.64151136       9.92268039       1.00730516       1.02642287       0.37538644      -0.80992537       0.49608599       0.71068316
N        1.88004665       5.39612074       4.07338418       0.64241234      -0.82196641      -0.88641054      -0.30576397      -0.31819074      -0.62746759
N        2.85328879      12.11378882       1.46435281      -0.03549076      -1.24540693      -0.24466940       0.44737867       0.19236471      -0.69170495
N        8.76121934       5.20805574      10.32975920      -0.27321666      -0.96001542      -0.11381110       0.42351508       0.27028222       0.30656862
N        2.30888232       6.25269403       8.35430394       0.70310921       0.61782970      -2.14552635       1.03677496       0.29910804       0.46328507
Pb       5.06516508       2.15386824      12.45689483      -0.33791398       0.33380873      -0.37974495       2.03106623      -2.42712084      -0.74960628
Pb      24.33787417       2.09666478      13.00199744       0.03229573       0.23475737       0.15168773       2.31363988       0.05016423      -2.62960951
Pb       5.02790054       8.89110744       5.87342363       0.19074556      -0.08199662      -0.01543552       0.15921302       0.04890685       3.52481428
Pb       5.18230325       2.41297061       5.70731809       0.01808352      -0.02876232       0.27953606       0.39969532       0.08842353      -3.07716595
I        7.97263854       2.32046862      13.19823902       0.17299343       0.14313311      -0.14513010      -1.50781620       3.03952587       0.90699273
I        1.59630551      15.29729745      11.20323658       0.31430494       0.13762143       0.36311537       0.60530347       0.63344502      -3.12834847
I        1.86393610       2.06727718       5.99443421       0.05671278       0.11079239      -0.04387180       0.20182238      -0.07764774      -3.12908379
I        8.25284320       2.23879684       5.90059326       0.27623462       0.02548954       0.01003281       1.10970965       0.73996518       0.93277030
I        4.69035540      11.96845337      11.89813787       0.14962001       0.06544520       0.06939943       0.04202568       0.80750208      -0.66525613
I        4.95698265       5.71463160      24.92342956      -0.01438958       0.06381233       0.04033087      -0.02502655       0.54773541       1.33847785
I        4.62350084       5.63857966       5.57385738       0.26266433       0.04751929       0.11252572       1.19552264      -4.61122200      -2.31413071
I        5.28517643      12.04877182       5.04809338      -0.20236808       0.07954735       0.22237323      -2.29479096      -2.68168962      -5.55647724
I        4.96570723      15.46052825       2.28373152      -0.16647962      -0.04413290       0.02534451       2.58017210       5.07785596      -1.91676443
I       24.35707245       2.62969610       3.32611298       0.05350880      -0.20208411       0.08871997      -1.17255098       0.21770135      -0.01232310
I       24.31367121       2.01868480       9.89384103      -0.03476764       0.01937359      -0.08366209      -0.94007006      -0.73360450       4.34796038
I        5.21648832       2.22962531       9.00141293      -0.06806403       0.08290606      -0.08059900       1.61591713      -0.34922440       1.23254817
H        1.37230825       7.11334532       2.83934421      -0.41709442       0.03504606       0.51540367      -0.24973968      -0.08753119      -0.08936537
H        2.70650455      13.23625319       3.26051583      -0.70442046      -0.47300369      -0.70717042      -0.01905318      -0.11826812       0.01931322
H        2.96516099      13.33459937       8.80271406      -0.40662974      -0.11533803       0.72442369      -0.28836743      -0.13305783      -0.19677544
H        2.61893940       4.29252860       9.10670154       0.28397487      -0.65025179      -0.31737990       0.16652832      -0.03589258      -0.01518979
H        3.17631298       7.02311942       1.52674970      -0.05051765      -0.26509355      -0.04418983       0.18649938      -0.03169627      -0.16266206
H        0.85142878      11.88322798       4.06183164       0.39180160      -0.15741717      -0.59935520       0.23666546      -0.12941128       0.14621198
H        6.69372339       5.77808005       7.81686141      -0.76807019      -0.67606354      -1.59386347      -0.05947818       0.04679145       0.17883574
H        0.83380885       4.39723042      10.67187740       0.01686198       0.57117364      -0.58453840      -0.01953535      -0.06163197      -0.04659363
H        7.25457690      10.62401350       2.36781529       0.02534951       0.42252778       0.19734815      -0.17371384      -0.05788500      -0.15979533
H        6.87632725       5.81731294       2.14431525       0.34579937      -0.56902953      -0.15844984       0.04157910       0.08768869       0.04601094
H        7.26271062       7.25743888       8.71882668       0.73671898      -2.19776446      -0.73904568       0.16301217      -0.33069012      -0.24249187
H        0.42803372       6.08149514      10.12765883      -0.04178899      -0.36510034       0.04146375      -0.16544390      -0.00088648       0.06806277
H        8.56458540      10.54076727       4.66170823      -0.41216055      -0.25009593      -0.36585515      -0.11818642       0.37043908       0.07917460
H        8.46059768       6.69180608       4.03178439      -1.19230107       1.25198772       0.10982034      -0.17603589      -0.09696000      -0.29696523
H        8.88694758       6.09697091      10.86924692      -0.32208287       0.74604558       0.00915116       0.29065601      -0.13278849      -0.16451296
H        6.18582419      11.56791149       8.83723137      -0.27552539      -0.61337364       0.22211830      -0.01448340       0.21271779       0.21923404
H        0.97620852       5.32967442       4.66755458      -0.60003691       0.57951629       0.28450716      -0.03081989       0.05112388       0.07223966
H        9.90739713       5.84535352       4.34198345       0.20234542      -0.67094201       0.27609547      -0.19900153      -0.17762139       0.08302190
H        3.18022841      11.99391436       7.05748471      -0.77235168      -0.39820518       0.60163915      -0.13391099      -0.13292138       0.15186143
H        6.38808885      13.00664212       7.78313504      -0.20531554       0.31016402      -1.11544946       0.10816343       0.05804746      -0.08657802
C        2.04201483       6.26746696       3.06603784       2.04300035      -0.41094897      -1.15039068       1.60493107       0.11751263       0.15316877
C        8.70003258       5.02678793       2.85230783       0.40071640      -0.10409542      -0.56794075      -0.08979338      -0.23890583      -0.82507036
C        7.93052265       5.04682363       9.29296440       0.46132514       0.28901473      -0.49251249       0.55483782       0.45090321       0.31792012
C        8.33643439      12.46382905       8.92511270       1.08351699       1.23034415       0.47576553      -0.96494114      -0.02752848      -0.36584805
N        7.68594109      11.61269684       2.22538249       0.59799468      -0.83576635       1.30029679      -0.27612174       0.15627481      -0.38010446
N        7.64817968       5.08185051       2.01483345      -1.16358345       0.34019789      -0.80056705      -1.07900371       0.21690542       0.41772879
N        7.29594406       6.10684353       8.52011142       0.53244765       2.59120722       3.18167108       0.64735779       0.26045654      -0.49316538
N        0.96817594       5.20762316      10.00546612       0.65992685      -0.69275474      -0.09323606       0.04628663       0.25198648       0.90266433
N        8.99588742      11.42557011       4.23676598       0.30259517       0.80054957      -0.70122033       0.18019721      -0.49089904      -0.08894588
N        8.91035179       5.83680040       3.85188999       0.90773923      -0.03132809       0.29235060       0.50891409      -0.21134074      -0.56095240
N        2.44672874      11.69493142       7.75911357       2.08711196       1.14995546      -1.77396217       0.63214060       0.58538840      -0.94795937
N        6.90788202      12.34219037       8.45990875      -0.55758361      -1.06626821       0.55645119      -0.32048190       0.09461095      -0.86755418
Pb      24.06680493       8.71449647      12.72557423      -0.08213844      -0.43581109       0.02807778      -3.40292156       0.40476840      -3.99049148
Pb       4.69251827       8.77316927      12.39743123       0.17822579       0.01864377       0.04130072      -1.72828003      -0.61898622      -0.50272719
Pb      24.64452846       1.98985153       6.46855990      -0.10409048       0.25044406      -0.03168711      -0.07047549       2.40113837       1.65824786
Pb      24.49341714       8.56637431       6.67206979       0.03947310       0.06576311      -0.13520616      -5.28648433      -1.64538016      -1.87131624
I        2.04701084       9.01965570      12.72624898      -0.22824720      -0.24691227       0.04270644       0.65037832      -0.33710997       1.45878318
I        8.59280380       8.53709343      11.66102845      -0.07237974       0.07576019       0.16143343      -3.48939719       1.05141000       3.38444470
I        8.24054519       8.43848833       6.38476095       0.08528856       0.19790750      -0.13522424       4.25156052       0.51140237       0.50032071
I        1.87179574       8.86439571       5.72409783       0.01842317       0.04091401      -0.00968725       0.14041869       1.64205167      -0.01899855
I       24.46845247       5.24354821      13.17614002      -0.12135003       0.10487301      -0.03564237       1.83665477      -0.23786301      -1.89305424
I       24.48581192      11.89788779      25.97213049       0.01433604       0.05284201       0.03049772      -1.49192543      -0.70931175      -0.50656424
I       24.83929524      11.88022824       6.60492592      -0.20463130       0.17458210       0.05415076       0.01739939       1.77542853      -1.16320621
I       24.65854252       5.54345794       6.78268803       0.06732359      -0.58569474       0.08173423      -0.55267710      -1.31953931       0.78983167
I       11.65751325       8.78864765       3.37648801       0.05184935       0.00621675      -0.35426726      -0.72473870       0.48314469       2.45854261
I        5.64745748       8.80773814       2.44522986       0.13134606      -0.22837352      -0.07603002       0.91107135       1.68622715       2.75002205
I        4.98656008       8.88572913       9.19588463       0.00093093       0.12962044      -0.39039025       2.12492855       1.85253850      -2.30064826
I       25.28806623       8.60882430       9.79265682       0.12915108      -0.02275927       0.17977946       1.81847518       0.70040178      -2.52459496
H        9.20338499      13.06114838      15.79971239       0.13800064       0.00226830      -0.17175934      -0.31034941      -0.23869255       0.24208631
H        9.04843512       4.23583637      14.54157876       0.48819229      -0.69025645       0.03109699       0.12351567      -0.01466979       0.13015957
H        8.21036763       4.05064204      21.18584420      -0.87783367       0.00477789       0.41502805       0.02709016       0.04826177      -0.04212635
H        7.94829967      13.11816616      21.14122362      -0.11917388       0.04275165      -0.14233038      -0.00993366      -0.10146798       0.27653419
H        6.98718626      13.37726313      14.47158870       0.11734353       0.39769598      -0.46634961       0.00552235      -0.36520818      -0.07867162
H        7.28723813       5.82188636      13.62747140      -0.13659672       0.40328325       0.55891209      -0.04530003      -0.18246330      -0.04392550
H        1.42157009      13.79416166      22.89284152      -0.05966898       0.13266185       0.05916810       0.05842460       0.30943036      -0.00232828
H        9.23011027      13.50455975      23.23280356      -0.45220669      -0.11388448      -0.03780347      -0.22860952      -0.17725969       0.21620754
H        2.61462573       4.59554386      14.50323182      -0.05318699       0.61485687      -0.22306947       0.26629378       0.17613254       0.12566991
H       -0.20254513      10.61739031      15.60754500      -0.42056920      -0.76445490      -0.73356591      -0.02407198      -0.04443798       0.04530517
H        0.68034520      12.10617552      22.84780184      -0.07070964       0.19852133      -0.21349666       0.11531866      -0.05618937       0.27598492
H        8.58914450      11.93516775      23.97276005       0.42672632       0.56900086      -0.38277107       0.02129577       0.08360866       0.03961726
H        2.01003857       4.48312241      17.05276104      -0.25180042      -1.26982217       0.76621017      -0.15004267      -0.00367217       0.15211158
H        1.83405806      11.43965382      13.98878296      -0.12310747      -0.41647309      -0.31859687      -0.05957426      -0.14440299       0.14078519
H        1.54583022      10.63468308      20.70406970      -0.48435437      -0.07167908       0.36778742      -0.08433711      -0.01073347      -0.08921377
H        1.89858849       6.47428078      19.83367852      -0.69888258       1.20626999      -0.44150387      -0.05096840       0.15406403       0.16156589
H        9.76821486      11.13851241      16.96242137      -0.20839743      -0.46342881       0.41102691      -0.06913935      -0.00232835       0.11143350
H        2.67020529      12.88109138      14.78348069      -1.01161360      -0.84218073       0.10956811      -0.02509773      -0.25673912       0.01174475
H        9.07984390       4.73182395      23.04219871       1.52068337      -0.64761327       0.75122064       0.24626009       0.04771755      -0.12447714
H        2.70617038       4.77412492      19.82501620       0.37894591       0.13574763      -0.43322188      -0.20753974       0.12846373      -0.22559653
C        8.44017328      12.25708417      15.73575860      -1.25513729      -0.92782409       0.30048379       0.61700441      -0.25916323       0.63445183
C        1.01636959      12.22912940      15.79576654       1.08511592       2.09367713      -0.36414726      -0.12424536       0.57970669       0.18932710
C        2.01869311      12.63252179      21.25236606       0.89342440       3.19262461       0.91240567      -0.33367144      -0.05775504      -0.45395597
C        1.28315391       5.01225190      21.44516643      -0.48463652       1.32740174      -0.66173705       0.13411076      -0.26025212      -0.16087232
N        2.02082310       5.44634154      14.44374897       0.18201324      -1.83778507       2.37006108      -0.72013059       0.02649880       0.76278555
N       -0.03277540      11.50479024      16.05448804      -0.07539524      -0.17050163       0.46435555      -0.22196995      -0.33221587      -0.40212406
N        1.26048092      12.90079069      22.32995043      -1.26365785      -0.72318617       1.67107827      -0.55110809      -0.22729911       0.77422932
N        8.60172720      12.64388992      23.16268736       0.18950025      -1.04513241       1.28294219      -0.56047954       0.56321527      -0.37343735
N        1.28082874       5.20526870      16.83178509      -0.00160712       0.91297493      -0.00742817      -0.61690166      -1.07208028      -0.75543080
N        1.80821657      12.19632844      14.69806448       1.16538104       0.66091965       0.44848497       0.14744378      -0.41695874       0.17594484
N        8.30049816       5.28250577      22.81780762      -0.94195443       1.24872815      -0.06324265      -0.13906769      -0.65257733      -0.27693536
N        1.95611319       5.46799648      20.25937522       0.06464564      -2.18246273       2.24487279       0.04304326       0.62976487      -0.61377844
Pb       4.52002987       2.40656343      25.15951147      -0.05160313      -0.18776185      -0.30801975       4.66350220       0.21197152      -0.64411768
Pb      23.68239973       2.19658702      25.80858006       0.38593957       0.13678713      -0.03608111      -4.34935316       1.96115242      -2.09419371
Pb       4.80209553       8.36847408      18.51923383       0.35568077       0.13073362      -0.14083539      -0.13707827      -1.65801173      -0.57516167
Pb       4.87962016       1.81194368      18.68002749      -0.19155320       0.22384178       0.24648763       2.42769017       1.11164809      -4.02726873
I        7.86212459       2.35675710      25.79117119      -0.32137299      -0.12079856      -0.19344148      -0.12300133       2.87377319      -0.82390795
I        1.50366623      15.54221256      24.87758556       0.19088964       0.15033419      -0.06652658      -0.90143213      -2.94914142      -0.80491361
I        1.56957597       2.46907558      19.22242073      -0.03200200      -0.16520948      -0.09921126      -0.36352497      -0.01500282       1.67174151
I        7.81967624       1.83847764      19.14978346       0.42638570       0.05933653      -0.08012380       0.06116844       0.31458294      -1.33992789
I        4.89506212      12.25967329      24.60289683      -0.06057096      -0.55084641       0.14182473       3.67276663      -0.75128072       0.96015003
I        5.13606690       5.40187817      12.45922243      -0.08052622       0.10071709      -0.19656301       1.29023982      -1.82412444      -2.24275991
I        4.92567189       5.18879877      18.07898455      -0.04203466      -0.13519222      -0.11179632       0.67106872      -0.29915677       1.41605106
I        5.15216976      11.75709925      18.78913821      -0.01011829      -0.12834158      -0.31419253      -3.14661287       0.81493155      -1.12687266
I        4.31659037      14.98748046      15.04424500      -0.08309856      -0.08699918      -0.01359200      -0.50296522      -3.09852252      -2.08232848
I       24.68075328       2.36215730      16.43668391      -0.09562643      -0.15517301      -0.45455073       0.66310186      -0.27516444       0.00931637
I       23.33932792       2.20356444      22.59324453       0.14950502       0.07754119       0.26250866       0.15041870       0.01715978       0.04347860
I        4.55098722       2.85651124      21.92252101       0.07258674      -0.24536976      -0.30521625       2.43958622      -0.20856156      -1.92004789
H        0.69438416       6.64755088      15.39193981      -0.59865634       1.13267416       0.30724837       0.02596341       0.12456730      -0.13039693
H        1.32124949      13.09370198      16.45195015      -0.76267102      -0.64559922       0.08868212      -0.00195490       0.34304436      -0.03789296
H        2.68729862      13.53396786      20.93083296      -0.32663048      -0.90747014      -0.10670802       0.23841242       0.01953589      -0.14201258
H        1.58571480       3.97018912      21.83652566      -0.05885477      -0.22006118       0.07693214      -0.16286680       0.22317111       0.09104876
H        2.17431862       6.09084129      13.71242762       0.06879381       0.85966788      -1.11145401      -0.01372633      -0.10723592      -0.07834734
H       -0.71569399      11.70571578      16.81552853       0.42922229       0.28401729       0.25481207       0.01817938       0.07260328      -0.40351236
H        6.17547146       4.87514197      20.39004650      -0.33695453       0.29248241      -0.16915778       0.29785879      -0.10289458      -0.03649677
H       -0.05594354       5.31323910      23.12476775       0.15606949       0.78240901      -0.93203176      -0.08995533      -0.13666025       0.11777024
H        6.47186465      11.76283023      14.97855500      -0.25921225      -0.07698579      -0.15829774      -0.10615931       0.01906296       0.09094045
H        7.06839146       6.94822489      15.29179751       0.89792459      -1.02139450       0.02917224      -0.30127888       0.15732096      -0.18646574
H        6.06294605       6.32903677      21.50090061       0.34910942      -1.68863248      -0.38431438      -0.27394881       0.31943099      -0.05934877
H        0.03863761       6.74256327      21.94352264      -0.69030285       1.04044774      -0.15772507      -0.08568417       0.32366357      -0.10276012
H        8.09432356      10.31408067      16.59629330       0.45363881       0.84632110      -0.25377902      -0.10585683       0.25924292      -0.01588942
H        9.01179148       6.14764868      17.49205949      -0.19246183       0.45812304       0.42440777       0.15393972      -0.18907064       0.02346936
H        8.12242822       6.17022963      23.28529721      -0.06245323      -0.07626852       0.36723261      -0.01614514      -0.01938478       0.15336331
H        7.13549988      10.34214298      22.21205629       0.15712091      -0.27355036       0.02604732      -0.05192692      -0.16287084       0.03042618
H        0.55013527       5.49017428      17.51926837       0.42782960      -0.42841185      -0.02403744      -0.18854720       0.06328152      -0.11646148
H       10.12435187       4.55362455      17.06013859      -0.19542404       0.03516890       0.00925243      -0.07442443      -0.19153657      -0.05215952
H        2.81277621      11.42763748      19.81233790      -0.35835483       0.13723098       0.26493852      -0.07548888       0.20350409       0.21126315
H        6.75744201      11.08783808      20.62123817      -0.56483875       0.14579389      -0.81587409      -0.24228579      -0.12895754       0.07833202
C        1.34456025       5.82628756      15.62506629       0.13329835       0.10571959      -2.10720262      -0.00097049       0.39577372       0.34166101
C        8.65341311       5.16048385      15.30946325       0.32700944       0.85752062       1.19112063       0.06196738       0.36622842      -0.12545411
C        7.62206304       4.85943172      21.79212693      -0.23305654       0.07580575      -1.65919697       0.20981979       0.07620583       0.49805003
C        7.92941544      12.31171733      21.93700165       0.49750118       0.62969466      -1.13111702      -0.48263041       0.66455786       0.79335436
N        7.15568560      12.52041692      15.03119453       0.78126287      -0.45366626       1.05375366      -0.04872687      -0.46342257      -0.86376680
N        7.62613445       6.05207703      14.72658826      -1.01037431       0.81379896      -0.56625702      -0.83515986      -0.16637101       0.45907576
N        6.47011278       5.34083987      21.28280110       0.79971370       0.92045284       0.87905957      -0.70960246       0.10867008      -0.57897424
N        0.27970813       5.72258971      22.14256029       1.46379048      -1.95258846       0.47730029       0.13043353      -1.13428342       0.01321314
N        8.77691568      11.11674361      16.46870343       0.21992440       0.54673793      -0.52099037      -0.33494068       0.23403756      -0.33582718
N        9.25340625       5.26716030      16.75015238      -0.23045663      -0.90253743      -1.42616453       1.04630765       0.22220482       0.76917474
N        2.01399822      11.54984798      20.52574293       1.49786967      -1.95956277      -2.68481695      -0.48583129      -0.40969518       0.25397635
N        7.33753644      11.07792114      21.47607356       0.01690159       0.24617621       1.08735189       0.28371400       0.17972487       0.07397051
Pb      24.58249952       8.72796803      25.96951559      -0.23130715      -0.18252430       0.05574454       0.15108029       2.45162685      -1.65978650
Pb       5.15686171       8.79841392      24.87774586      -0.06504497       0.02834680       0.13068780       0.10012554       1.60445628      -3.01776738
Pb      24.26301584       2.02611129      19.30866942      -0.21984893       0.08539953       0.26014446       0.56683256       0.72806112       5.01882543
Pb      24.26682156       8.50745295      19.57840520      -0.18554779      -0.02050518      -0.15316478      -1.98965547       0.98193200      -0.88747451
I        2.02742971       8.46525824       0.07507047       0.46149145       0.39392727      -0.12703185      -0.46860934       2.80134597      -1.72299681
I        8.06762859       9.10325566      24.15379171      -0.31123994      -0.18447334       0.21442561      -0.50099835       1.12655540      -2.64624198
I        8.20694894       7.96316304      18.89991393      -0.03768819       0.14575101      -0.01554641      -0.82293232      -0.61588358       2.25547166
I        1.73367861       8.68641863      18.51707082      -0.20083517      -0.03531977      -0.10046927      -0.40848955      -1.92152170      -2.08469298
I       24.15832186       5.47485517      26.12936606      -0.14426394       0.12638116      -0.10684352      -1.56149490      -2.56673683       2.18035898
I       24.73054988      11.65039964      12.91085555      -0.18097015       0.26073335       0.08374738      -1.86385322       0.81739296      -2.12282110
I       23.74807389      11.63488759      19.55696962       0.05358181       0.26624414      -0.05473633      -1.65729568       1.73943017       1.17932152
I       24.14249025       5.37238807      19.64753641       0.10745438      -0.16283499       0.20373307      -1.90479779       0.60160002       1.24287525
I       11.52908205       8.42256496      15.94361635      -0.04905267      -0.06575596       0.16651332      -1.68893324       2.28726848      -0.24585523
I        5.84827650       9.01924627      15.45288980      -0.08181865       0.00936879      -0.05709127      -1.76274164       1.27361211      -0.26119814