768
Lattice="25.888783465013457 -0.26065579461610544 0.6964381020346223 0.2808865365786464 25.92206712803773 0.0706842229014887 -0.6430174188924329 -0.04221809821815645 25.838360985299012" Properties=species:S:1:pos:R:3:forces:R:3:momenta:R:3 energy=-3616.3980994490776 stress="0.0 0.0 0.0 0.0 0.0 0.0 0.0 0.0 0.0" pbc="T T T"
H        9.30272806      13.31311257       3.11746681      -0.74036596      -1.43620286      -0.17547899       0.11725846       0.10950517      -0.06834255
H        9.40147619       3.75851341       3.43543247       0.37628851      -0.60603190       0.09968690       0.13656603       0.25549110       0.30783783
H        8.21458987       4.14157581       8.60451836       0.93664943      -0.27952930      -0.14938942      -0.37993110       0.12249738      -0.00550804
H        7.96096136      13.40666575       8.73596237       0.37725052      -0.70477230       1.31484752      -0.12754301      -0.44890220      -0.04424142
H        7.47653980      12.65098686       1.79898541       0.17966213       0.00976909      -0.04381101       0.15034016      -0.08694094      -0.04909005
H        8.19734014       3.94316074       1.31719789       0.15358833       0.38669249       0.79718175       0.07663953      -0.05470756       0.36733837
H        1.12773232      12.67327789      10.78362034       0.18941856      -1.06811001      -1.00523497       0.16661161      -0.12450389      -0.19170771
H        9.10175026      13.12576120      10.94926341      -0.54284343      -0.45456857      -0.40917879      -0.04023506      -0.03870605       0.23105329
H        2.70258044       5.29205585       0.95381176       0.25185320      -0.05011396      -0.19085520       0.09591351      -0.06795659       0.27885378
H        0.58554972      11.20110886       2.63070718      -0.98673138      -1.94284117      -1.31290777       0.22228401      -0.25646395      -0.02901321
H        0.81869928      11.05742304      10.11444304      -0.49178929      -1.02817543      -0.14270273      -0.08628197      -0.17024708      -0.13239008
H        8.37899087      11.55037980      11.22051621      -0.33799892      -0.03413623      -0.21626430      -0.03028573       0.26492909       0.08187528
H        1.58661282       4.49290849       3.24666877      -0.73269316       0.56319957       0.10688812      -0.11354760       0.07699007       0.00764048
H        2.87694422      11.57156788       1.40792640      -0.45839420       0.71889555       1.41666906      -0.11745702       0.12811013      -0.35765390
H        1.90673400      10.60348586       7.74909506       0.95590007       1.50005697       0.30307638       0.01901357      -0.07520177      -0.13089237
H        2.47082178       7.27306470       8.85623628      -0.79767296       1.13580721      -0.77816001      -0.24676982      -0.22175589       0.32700912
H        9.98277391      12.17594149       4.91478996       1.25952125       0.02700870       1.98891916      -0.02747764       0.09198766       0.20635680
H        4.07997373      12.67690437       2.27984588      -1.65881881      -0.39495850       0.95599557      -0.35841505      -0.04554504      -0.00132825
H        9.36085434       4.75640588      10.47897169       0.83436251       0.44114636       0.49243212      -0.12369578       0.24543798       0.01359991
H        3.22247888       5.88265362       7.77525657      -1.40767165       0.02278171       1.18473720      -0.11857623       0.23145793       0.18219460
C        8.69868624      12.33912943       3.38984980       0.39509656       1.93568910      -0.52761955      -0.23251983       0.06684835       0.19140157
C        1.97588147      12.65599465       3.03812874       0.16507591      -2.11204552      -0.51100844      -0.36426583      -0.16550648       0.36255384
C        2.08772515      12.32726299       8.98203898      -1.48245494       0.28775432      -0.06607557      -1.22878342      -0.43929411      -0.36486090
C        2.01010274       5.23235235       9.42988587      -1.16633368       0.64723222       0.32170723      -0.83854215      -0.43743419      -0.52460153
N        2.28002643       6.27020004       1.37635307      -0.93927427       2.95515135      -0.82756892       0.60137163       0.05076772       0.90226844
N        0.69877358      12.08853181       3.02367601       0.14415987       2.09274557       1.69986646       0.11295974       0.89158253       0.47801306
N        1.27942628      11.96160434      10.00507876       1.08255926       2.29447028       1.04891539       0.01159289       0.01768033       0.41924550
N        8.44048521      12.38002184      10.61663593       0.88252600       1.22724124       0.30419404       0.51944339      -0.25740411      -1.01343398
N        1.26570663       5.58178109       3.42335751      -0.24373980      -2.44073399       2.38998035       0.66489728      -0.65686004      -1.19968277
N        3.03247924      12.24499310       2.29191305       2.20485229       0.05160640      -2.47135212       1.04590065       0.13929038       0.70327990
N        8.82594827       5.57325431      10.05003757       0.77366101      -1.41418217      -0.36853163      -0.95965776      -1.10961586      -0.39677440
N        2.47590905       6.09493269       8.51846149       1.48269680      -0.77994117       0.28924162       0.35440687      -0.19547389      -0.33530011
Pb       4.90363711       2.55609997      12.40682592      -0.23545360      -0.22392389      -0.14099530       0.17842408      -2.84019381      -3.26088619
Pb      23.90618404       1.91905909      13.41224910       0.53476482       0.16682006      -0.23333392       0.84002081      -2.01114834       1.30228900
Pb       5.39874464       8.71306256       5.81640154      -0.06244321       0.13211348       0.09457180      -3.77547025       1.92700580       0.85749248
Pb       4.84628424       2.23828006       5.71183467       0.06065160       0.08099121       0.13845325      -2.61805667       0.60826809      -1.33052756
I        7.93637550       2.28473932      13.13661817       0.15142865       0.15868993      -0.13940516       1.30951219       6.62165039       4.24958557
I        1.57969440      15.17814343      12.42693261       0.23385211      -0.11345153      -0.37093824       2.48358115      -0.03148430      -2.93672802
I        1.70876600       2.48726465       5.67091178      -0.07170698      -0.15455969       0.11451337       1.88122011      -0.49878205       0.23286256
I        8.19628577       2.23502486       6.09181541       0.13085165       0.07243969      -0.14726261       0.40227413       3.78138222       2.06201000
I        5.29881639      12.03932555      12.14090684      -0.02056300      -0.21117764       0.00350638       2.56514062      -2.28272925      -4.15191286
I        4.95893742       5.58148711      24.85381449      -0.06568155       0.10711287       0.01650132       0.55531788       1.79134772      -0.28190676
I        4.89825513       5.54492692       5.53175544      -0.00331981       0.05129925       0.25190106      -0.14313684       0.86051956       1.09291794
I        5.38056824      12.08378340       5.58062938      -0.07887636       0.13881992      -0.02720342       5.01774356       1.15597318      -1.85339564
I        4.35593028      15.65655842       2.21058174       0.19072402      -0.11775970       0.17890058      -2.32736874      -6.57455100       1.82449879
I       24.48042420       2.68802823       3.50422686      -0.03912152      -0.22052777       0.11829094      -2.98693236      -2.80694499       0.41197643
I       24.07125437       1.74052931      10.05692358       0.00781441       0.14787618      -0.22533901      -1.44196487      -1.61307283       0.40340663
I        5.05631234       2.40899777       8.97202730      -0.10620647      -0.01327570       0.02032760      -6.25596103      -1.99289184      -1.50761514
H        1.32091774       7.77364575       3.05970602       0.68662293      -0.92365059      -0.36483649      -0.41486847       0.33449559       0.31835446
H        2.22109424      13.37081485       3.81272137       0.31757142       1.81764572       0.39760282       0.06461097      -0.19170145      -0.13116603
H        2.42268864      13.43657861       8.96854114       0.41616470      -0.51046135      -0.02099999       0.06445104       0.06396255      -0.21634508
H        2.26011027       4.09144923       9.26461559      -0.06691554      -0.10675964       0.29230442      -0.21867645      -0.09668150      -0.04478275
H        2.21816007       7.37026049       0.84077071       0.66170839      -1.91570121       1.13779965       0.33123627      -0.17853068       0.01488316
H       -0.09087958      12.46605054       3.63558637       0.13714186      -0.21409054       0.09680792      -0.29592660      -0.00069759       0.20909393
H        6.42496161       5.55793705       7.75078733       1.57088654       0.56534184       1.78312024      -0.12993795      -0.18205399      -0.19292600
H        1.01326467       4.80138939      11.13668644       0.17378298      -0.13636009      -0.28173845      -0.25094596      -0.29845205      -0.09801624
H        7.13033713      11.15538219       2.54097094      -0.02452765      -0.41426799       0.71530529      -0.00033268      -0.18932612       0.24806912
H        7.50706905       5.54586283       1.77064631      -0.48777528       0.89167053       0.01996078       0.31324844      -0.06223550       0.00978862
H        6.93339354       6.81337502       9.00216361       0.20531998      -1.28816765      -0.86993337       0.00710535       0.10031842       0.09591503
H        0.80231523       6.51253347      10.84822547      -0.10906977       1.44019193      -1.11244653      -0.09711566      -0.14816695      -0.16918108
H        8.42136798      10.91391622       5.18425071       1.83806437       2.71437345      -0.65490525      -0.10335333      -0.19915882      -0.21767567
H        8.31841555       6.63700685       3.97812221       0.50143697      -0.62022450       0.19136219       0.13838405       0.06558414       0.15391208
H        8.61564218       6.41526584      10.56048829       0.18404297       0.67652594       0.48336035       0.06179461       0.21912434      -0.21896552
H        6.71908032      10.88672763       9.61566031      -0.51407853      -0.12571908      -0.50432274       0.14144466       0.01793672      -0.01067307
H        0.58558023       5.81768327       4.19921952       0.53579025      -0.22536796       0.27842193      -0.14103668       0.17199427       0.42190389
H        9.56984845       5.63077112       4.89443833       0.39797643      -0.04874342       0.97019643       0.25538688      -0.07369788      -0.20246436
H        2.92145787      11.95849869       7.13163289       0.48751831       0.05258345      -0.32810703       0.02549179      -0.38809480       0.15485092
H        6.52805219      11.71104797       8.01328201      -0.68998349       0.45177297      -0.82428357      -0.19867716       0.23563102      -0.22730195
C        1.64842540       6.56376065       2.66178098      -0.07044606       1.70997312      -2.29413493      -1.04108752       0.77277870      -0.06572857
C        8.79445101       4.67176063       3.25382853      -0.84249042       1.05169125      -1.76332781       0.02168227       0.48951444      -0.05924178
C        8.17451386       5.17257190       9.00322866      -4.15151327       0.80847450      -0.70544165       0.22953370      -0.29069719      -0.63189322
C        7.78886453      12.54595928       9.46877107       0.25999639       0.88952191      -1.66693498      -0.13544976      -0.15964124      -0.67643422
N        7.67688710      12.01282695       2.59076729      -0.44538294       0.53363676      -1.24400431      -0.10999930      -0.21558629      -0.18406894
N        8.13174835       4.76238419       2.02200684       0.71840605      -1.59498257       0.31479502      -0.12997598      -0.55429172      -0.25906693
N        7.12820895       5.87156299       8.53634840      -0.46826678       0.70445422      -0.56346121      -0.02672369       0.11825994      -0.38143417
N        1.20937435       5.58643468      10.47789594       1.91882814      -2.39680426      -0.06981303       0.31949537       0.01423018       0.04976383
N        9.07703991      11.75304838       4.52649802      -2.68599666      -3.53030799      -0.29588092      -0.94481394      -1.17915016       0.13445984
N        8.83832393       5.68004060       4.16827162      -0.92734918       0.79115577      -0.64676577      -0.18426299       0.36818760       0.82132372
N        2.31295491      11.59677886       7.88631618      -0.96825515      -1.18690957       0.36546118      -1.07625422       0.29851534      -0.53167880
N        6.93335439      11.67546903       8.96708952       0.70333800      -1.10004208       1.73553136      -0.07402979      -0.49023585      -0.45631181
Pb      23.70705071       8.51838678      13.08094530       0.38664995      -0.00510395       0.00150428      -1.39024423       0.10182970       3.35619540
Pb       4.48727561       9.03521904      12.54438177      -0.09965672       0.30698454      -0.16460298      -1.23243230      -0.88990232      -2.19166976
Pb      24.28783880       2.07849009       6.75097071       0.01204592       0.36018572       0.01671561       0.79503465      -1.13338338       0.31613306
Pb      24.89896250       8.59005170       6.76380221      -0.08014598       0.24802948      -0.01022864       6.52207493      -0.88175894       0.06993848
I        1.59444663       9.49966106      13.45258749       0.52516419      -0.28296905       0.06397699      -1.03070333       3.35072912       0.20071201
I        8.47794983       8.82462263      12.12901642      -0.19118616      -0.07162776      -0.05889378      -1.22438235       1.97077557       0.38918932
I        8.39336260       8.67178709       6.57387976      -0.26053907       0.04566963      -0.19598022      -0.68879248      -1.37153204      -0.22862278
I        1.93586295       8.75122698       5.54052208       0.23283657       0.16998480       0.10094908      -5.15770647       1.48171665      -1.62592634
I       24.01184840       5.09808820      13.56586083       0.03844372       0.15704216      -0.09819299      -1.43055951      -2.06189184      -0.39214048
I       23.89703603      11.88640062      26.46214078       0.24950275       0.28496304      -0.15706952       0.32011239       4.64310800       3.73685629
I       24.10216394      11.92081281       6.93295861       0.10515604       0.24459888      -0.35663582      -2.18229301      -0.10926899       0.38982607
I       24.85754810       5.46267797       7.03673543       0.01487210      -0.19182991       0.17145596      -0.90655268       0.85955343       1.69675488
I       11.66394228       8.94248379       3.30154720       0.04842453      -0.05176808      -0.14608829       0.35760532      -0.96334232       0.72994616
I        5.91887740       8.42757721       2.57301174       0.09878400      -0.03950818      -0.11454267      -0.28754408      -1.41646724       0.87649776
I        4.66110692       9.07495849       9.18712328       0.11541602      -0.34626478      -0.17850338       3.43052195      -2.88278539       1.14259487
I       25.85191882       8.64988085      10.41674032      -0.22166104      -0.05497352      -0.44296944       1.59868221       1.22971276      -0.04498184
H        7.97251231      14.49524718      16.11245362      -0.12263215      -0.00421394       0.26982962      -0.13926181      -0.20404995      -0.12017096
H        9.29409078       4.26590091      15.76949683       0.21215995      -0.03609522      -0.36361747       0.00857774       0.01894180      -0.25100307
H        7.52628882       4.54358639      19.93159342      -0.62761741       0.42602011       0.05253912       0.26771465       0.08226846       0.06960634
H        8.46801774      12.86570590      21.47952031      -0.56488668       0.75629211      -1.25002532       0.06666814      -0.09714722       0.01967064
H        6.10770280      12.49284135      14.82528129       0.77775939      -0.68930575       0.84251439       0.10272622       0.04388700       0.06843983
H        7.32699233       4.85017583      14.35514206       0.15671989       1.08228035       1.54240199      -0.22027594       0.09258993       0.25295655
H        0.65991105      12.41717173      23.31651805      -0.03730724      -0.98771020      -0.64180351       0.03573060      -0.21978041       0.07500222
H        9.71318197      11.72054784      22.98881527      -0.32496562       0.11066927      -0.06716937      -0.11601025      -0.02289342      -0.09115561
H        2.93600400       4.37834746      14.58042757      -0.33429924      -0.40627834       0.30940841       0.30418407      -0.31785394       0.35082412
H        0.10691747      11.54584574      14.89754410       0.66320435      -0.34326599      -0.56134927       0.03540241      -0.18989673       0.08933288
H        0.43247271      10.88098719      22.16092650       1.05107470       0.81430576      -0.14107394      -0.06543935      -0.14068666      -0.26198257
H        8.45354816      10.47208656      23.29891804      -0.21434331       0.38632530      -0.44593466      -0.05920648      -0.19372325       0.20996232
H        1.66066629       4.08354241      16.76302323      -0.58513879       0.56638352       0.18788972       0.10026138      -0.08428868       0.07277126
H        2.24879954      12.34561620      13.93485259       0.67720707       0.12756302      -1.00158394       0.03208921      -0.22629755      -0.04724019
H        2.06727133      10.73516935      20.20201718       0.15116602       0.66708770       0.35966165      -0.25786858       0.18488440       0.05178190
H        1.94536182       6.69117040      20.22941563      -0.09029497      -0.66339897       0.40703552       0.16333584       0.11336173       0.21193326
H        9.76346954      13.35075624      18.12115729      -0.36540661       0.03497913      -0.60002715       0.30389775       0.08529252       0.10660888
H        3.31126839      13.76694279      14.82874900      -0.88005281      -1.11620166      -0.11215307      -0.30828234       0.31679599      -0.03012680
H        9.12656558       3.43533999      22.15300981       0.82019715      -0.51181400       0.08003241      -0.13329268      -0.11685299      -0.06457850
H        3.13471692       5.47811997      20.04850846       0.91962464      -0.51227923      -0.97151597      -0.06666948      -0.08614162      -0.00881582
C        8.07682883      13.11614867      16.47699159      -1.25516085       1.88873346      -3.03013236       0.59899087       0.42100907       1.12854618
C        1.76991103      12.81993895      15.95276386      -0.52981279       1.54827067      -0.11525296       0.94816957      -0.55913638      -0.79052429
C        1.96709736      12.44526994      21.59685620      -0.01246044      -2.42457866      -0.00905232      -0.00524132      -0.48797232      -0.05369480
C        2.00304477       5.03388309      21.61032512       0.78718836      -1.63596865       0.09215725       0.39768087      -0.61389453      -0.10177571
N        2.44437943       5.28175179      14.59781979       0.21454689      -0.38023475       0.80349102      -0.29171595      -0.13532255       1.04741803
N        0.62586785      12.03809319      15.91280256      -0.21928839      -2.30394079      -1.26956490      -0.43540674      -0.28835692       0.23757891
N        1.03346781      11.79890728      22.48488372      -0.45566050       1.61257626       0.69551067       1.48448775      -0.99437076      -0.10969037
N        8.71797511      11.34202536      22.75292830       0.85732971      -0.96555763       1.79669387      -0.06817245      -1.25427883      -0.08659772
N        1.39967203       5.14739051      16.75104123       0.96980840       0.28987521      -1.38200854      -1.21203358       0.03022545      -0.62928356
N        2.44346772      13.06335461      14.66111961      -0.20737515       0.84911191       2.17159602       0.65680673       1.34681958       1.15103821
N        8.60486883       4.56272955      22.35850372      -1.12471475       0.68420727      -0.17384626      -0.96217991      -0.36719168       0.49411969
N        2.27699658       5.73475997      20.51478391      -1.28393133       1.02304393       1.61050281      -0.11779021       0.48950912      -0.35173438
Pb       4.55034601       2.26023679      25.27251882      -0.04877324      -0.19885277      -0.11220998      -2.80810929       0.11008538      -0.47473544
Pb      23.79939669       1.79121624      26.06944423      -0.13642365       0.81611175       0.07956959      -2.19068640      -2.95358176       0.37744954
Pb       4.65085469       8.76743475      18.35603445       0.52551507       0.46055932       0.18249046      -0.97122231       1.74771251      -2.58376297
Pb       4.56875312       2.35426529      18.96079238       0.13508420      -0.18469097      -0.16835745      -0.86637076      -1.00491550       4.03138068
I        7.59246305       1.75517037      25.56530164       0.19513974       0.16198759       0.19115339       0.64713452      -0.08620519       3.22442748
I        1.60919959      15.44185972      24.59871781      -0.05079652      -0.29737671      -0.22426722      -1.96890570       2.33105807       4.53030634
I        1.24652609       2.51031890      18.79510417       0.40759084      -0.27811294       0.17063553       4.73656664       1.18550551      -0.17927841
I        7.88400894       2.09528704      18.86602532      -0.14177909       0.07150198      -0.10107298       1.83709154       3.15630261      -1.15286953
I        4.87571867      12.11912166      25.18377227      -0.05494654      -0.20326704       0.07608247       2.05387555       0.91213268       4.50815565
I        4.79916118       5.62226636      12.24044390       0.07752530      -0.21887193      -0.01508716      -2.35961653       2.36528886       2.84350515
I        5.33676224       5.51187203      18.27565263      -0.19826594       0.33791401      -0.01642429       0.95082849      -1.78515311       2.94328674
I        4.97686934      12.14810333      18.13074783      -0.10035269      -0.12382505      -0.07873551       2.07967967      -2.45356221       2.21350899
I        4.44820564      16.01118714      15.25042542       0.10619899      -0.32842655       0.01718175      -3.26390310      -0.47769885      -1.18123859
I       24.33419836       1.66203874      16.37407938      -0.18690061       0.23347458       0.40510364      -1.41864240       1.14083859      -0.71976492
I       23.33625083       2.02185187      22.89932295       0.09773591       0.08689093      -0.16188099       2.00179025       1.43447403      -2.50385868
I        4.57844407       2.25315946      22.05851137       0.04000348       0.09472365      -0.38643712      -1.08413714      -5.21462976       1.03892855
H        1.51642990       6.96062495      15.60878171      -0.53699553       0.06934961       0.25128280       0.10239809      -0.23413838      -0.20532004
H        1.97106350      13.42055589      17.09611309       0.57083476      -0.60360138      -0.68474659      -0.07470738      -0.02138172      -0.05013982
H        2.51004067      13.43551615      21.87427064      -0.80634851      -0.43866081      -0.04517729       0.00388014       0.19018580       0.17582879
H        2.63569433       4.10770270      21.73377820      -0.38931771       0.77826443      -0.25752782       0.09020810      -0.01747017       0.03711061
H        2.72104625       5.84037360      13.83090957       0.17705855       0.99946316      -0.80793844      -0.11954900      -0.25775020       0.10705654
H        0.03095777      11.77065262      16.85435345      -0.31033587       1.66602522       1.62573899       0.02402647      -0.00467350      -0.15889219
H        5.99946536       7.01802840      20.50054890      -0.85264385       0.01943673      -0.94735463      -0.31107343      -0.10072881      -0.18107853
H        0.94247885       4.38943917      23.25930651       0.18586322       0.68018129      -0.46046409      -0.26473355      -0.04066139       0.00043793
H        7.24138139      10.61552689      16.04913762      -0.26415518       0.19874748      -0.00847331       0.00024597      -0.01234122       0.13329390
H        7.03306237       6.30180862      15.44707041      -0.15411060      -0.08575113      -0.35660789      -0.32887688       0.01390203       0.12273220
H        6.76789312       7.25035376      22.68802306      -0.02006386      -0.56404053      -0.53477812       0.20994442       0.21073134      -0.09026159
H        0.50898580       6.00169185      22.58096488      -0.34845198      -0.06456538       0.37364128       0.35280614      -0.39467881       0.23891037
H        9.37697110      11.27024896      17.81555188      -0.42143540       0.14500627       0.15741483       0.41301839       0.09349312      -0.06937680
H        8.74388659       6.97273165      16.97431728      -0.50798595       0.16441893      -0.31309372      -0.22910672      -0.17516530       0.05934626
H        8.73468469       5.11322940      23.49121512       0.23901823      -0.52412229      -0.09645719       0.38347728       0.12884491      -0.38401620
H        6.00242142      10.76192056      21.88935794       0.19978949       0.12625136      -0.14221400      -0.01299034       0.00093998      -0.20563923
H        0.73161175       5.56480792      17.41012130      -0.27958234      -0.09532630       0.60738993       0.39169911      -0.15485135       0.24446337
H        9.90716401       5.96400608      17.59529226      -0.17619736      -0.66933853      -1.10442057      -0.01822917      -0.11534649       0.21560816
H        3.07720566      12.16956432      19.75146503      -0.68495223      -0.01210238       1.14592454       0.12551671      -0.13346918      -0.07770526
H        6.17128781      12.03806900      20.63845773      -0.46074971       0.29467618      -0.49540050       0.13649366      -0.04943967       0.04688536
C        1.75623121       5.84920199      15.68115136       0.25246232      -0.94353653      -0.11189452      -0.05130410       0.14642437      -0.79728308
C        8.76300794       5.20850764      15.88221280      -0.93283512       0.37689126       1.47514252       0.32804472      -0.19588231      -0.42726924
C        7.57930357       5.17970106      21.18785235       1.63348745       0.21532089       1.46062539      -0.83468851       0.54191064      -0.08681871
C        7.90742940      11.95418732      21.86474936      -0.92139601      -1.22028598      -0.42189758       0.59979521       0.79343608       0.04112464
N        7.10434151      12.02649503      15.73596830      -0.26051898       0.55403641      -0.98650482      -0.40876405       1.05249163      -0.61010136
N        7.54233924       5.41784457      15.24246399       0.36241729      -1.09137131      -1.89495494       0.84275463       0.59005192       0.44703405
N        6.72522595       6.59382809      21.47158646       0.11930039       0.09925741       0.36483733      -0.62976623       0.32412228       0.40004554
N        1.11173962       5.17829619      22.57827812       0.01410412       0.48332127      -0.63939630      -0.10284497       0.25078414       1.04288348
N        9.04575985      12.62084702      17.53630582       1.98233498      -2.12595328       3.09187270       0.93204200      -0.53478816      -0.36145361
N        9.16429712       6.05553388      16.82679059       0.67011208       0.20723980       0.81786799      -1.44757347       0.69724188      -0.71424444
N        2.42450846      11.71294715      20.51984150       0.64459979       1.01974150      -1.03794169       0.54410105      -0.17482012       0.41361392
N        6.59522943      11.56226855      21.45428636       1.50445581       0.86449661       1.08727622       0.32338466      -0.69259145       0.32120301
Pb      24.40525284       8.89738294      25.93783066      -0.04761483      -0.77596012       0.15371387      -1.36839990      -4.18474706       0.27331183
Pb       4.73161759       8.55713052      25.03998283       0.21440092       0.43825233       0.12008447      -3.20480417      -5.21301260       1.33752311
Pb      23.81157333       2.09461752      19.74031583       0.00861462       0.16773133      -0.12040481      -0.61618852      -1.38912578      -0.21470036
Pb      24.32531296       8.56092930      19.44518467      -0.80347386       0.23602362       0.02130913      -1.12840262      -1.13258062       0.73049780
I        2.08351979       9.27578483       0.03223356       0.23823044      -0.06325849      -0.00683567       2.36694175      -2.76416092      -0.86316366
I        7.86241667       8.36531377      24.50296156       0.05076147      -0.19406273      -0.13286660       1.57195212      -2.08847622       1.83676368
I        8.23033254       9.35061266      18.57124335      -0.70253312      -0.19226661       0.26524074      -0.80471276       1.32099267       2.15084983
I        1.50787336       8.81527740      18.59818375       0.25320212      -0.02585408      -0.25421199       0.99733073      -3.32722923      -3.52872927
I       24.37222227       5.33663875      26.09588764      -0.08367315       0.10156530      -0.11809839      -0.48396584      -1.05949675      -1.94036852
I       24.38791444      11.59768613      13.45885802      -0.03029289       0.12859310      -0.06199621       1.16097201       2.14287100      -4.20860339
I       24.01005695      12.06369556      19.48563720       0.35287021      -0.41986261       0.22670730      -1.18484852      -0.35748822      -1.46084787
I       24.52208311       5.47099133      19.45860458      -0.21513948       0.10457867       0.17956608       3.27518914       1.74303189      -1.52713458
I       10.95595674       8.49461996      16.29425433       0.28580472       0.23852001      -0.31522397       0.52807749       2.33426469       3.82835720
I        5.73750098       8.88010184      15.50541559      -0.02963661      -0.17635721       0.00383303       0.23694803       3.14645126       3.92266749