768
Lattice="25.888783465013457 -0.26065579461610544 0.6964381020346223 0.2808865365786464 25.92206712803773 0.0706842229014887 -0.6430174188924329 -0.04221809821815645 25.838360985299012" Properties=species:S:1:pos:R:3:forces:R:3:momenta:R:3 energy=-3615.541587254077 stress="0.0 0.0 0.0 0.0 0.0 0.0 0.0 0.0 0.0" pbc="T T T"
H        9.82328428      13.58208849       3.11126175       0.38894888       0.13499335       0.08048621       0.04277653      -0.15643467       0.01974103
H        8.85462877       3.99605012       2.97584602       0.04858908       0.26644850      -0.05961926      -0.39622124      -0.12222672       0.11069249
H        8.67430029       4.44841207       8.05215252      -0.70199327       1.37896814       0.28633565       0.01361350       0.00029585      -0.23021762
H        8.36386781      13.91186631       9.19372859      -0.20200529       0.26639455      -0.57908792      -0.01568428      -0.06762330       0.01632797
H        8.75874789      13.71719075       1.01713481      -0.11125923      -1.95111665       1.14571785      -0.38151517      -0.05867061      -0.09106833
H        7.65171961       5.40656805       1.31509487      -0.61087964       0.44555446      -0.13238013      -0.37984832      -0.44286460      -0.00160799
H        1.17731764      13.36708334      10.99275505       0.39137034      -1.57363955      -1.75753550      -0.04891191       0.16207987       0.11028683
H        9.16225730      13.27030524      11.27168105      -0.33701168      -1.12067349       0.02330802       0.03284074       0.31342484      -0.00755789
H        3.41733274       5.07600984       2.29169492       0.26618707      -0.22562107       0.27057833       0.21373878       0.05975022      -0.03047611
H        0.68280613      11.14067608       2.56009091      -0.63547110      -1.24911131      -0.27664103       0.25902309      -0.37291044       0.23798057
H        0.40691668      11.97228140      10.25305158      -0.86437622      -1.70585444      -0.01933395       0.05086020       0.12706385       0.07217741
H        8.63318538      11.31001805      10.84850838       0.28429960       0.73151519      -0.11494235      -0.12266026       0.30579456       0.24606555
H        1.82410616       4.38691612       4.23015054      -0.16825009       0.88757518      -0.49158537      -0.03592775       0.04765496       0.03012140
H        2.68913866      11.08545240       1.33408061       0.03249724       1.71696455       0.78813093      -0.49638970       0.17278389       0.13492078
H        1.77950742      10.82462963       8.26489057       0.54017990       0.93066585       0.01278173       0.05744181      -0.08731484      -0.03114432
H        1.55902485       7.19748548       8.02893259       0.10748286       0.61658448      -1.23515982       0.29253106       0.21896272      -0.14115251
H        9.47627619      11.70589425       4.72226819      -0.35404913       0.04688868      -0.68392695       0.07722940      -0.11824895      -0.25758614
H        3.54291772      12.69228863       1.32594861       0.26788136       0.36021663      -0.20260783       0.00378411      -0.22759468      -0.01738000
H        9.71682556       4.25344261      10.35732632      -0.53976860       0.13644248      -0.51715751      -0.13349929      -0.16982571      -0.12404674
H        3.06820885       6.26568158       7.50637424       1.05902986       0.24510078      -1.00567228      -0.10695938      -0.16019707      -0.27095543
C        9.20799072      12.68951766       2.80776325      -2.37363007      -1.49511273      -0.23898815      -0.50811312       0.69482381      -0.13158304
C        1.88910660      12.74138295       2.50240102      -2.16678367      -2.24776126      -0.07620910      -1.23200738       0.13437586      -0.12651331
C        2.24485071      12.54732570       9.39527386      -1.10994937      -0.54134649       0.40402116      -0.65838848      -0.61234912      -0.20958642
C        2.00418474       5.59161749       9.08929389       1.75413313      -0.69785086      -1.19712455       0.54103027      -1.66919325       1.53794029
N        2.94594928       5.98519031       2.24934636      -1.02331276      -0.66917514       1.18798640      -0.46381604       0.27684491      -0.98428582
N        0.81573153      12.05210368       2.94439128       2.21896035       1.77288833      -0.41578113       0.59153458       0.60642204      -0.86054397
N        1.25399454      12.54874193      10.27734521       0.66829088       3.14374508       1.63914903       1.18068796       0.28837083       0.14024356
N        8.72077136      12.38788682      10.58287024       0.39338886       0.84522592       0.00173051      -0.89269913      -0.44542951       0.49365542
N        1.37083156       5.28847464       3.93491442      -0.14495978      -0.07919661      -0.50745312       1.68271660       1.08094256       0.11333177
N        2.68908051      12.20939744       1.60952034       0.38856968      -2.20029369      -1.37637684       0.57373387      -1.21349241      -0.21950263
N        9.05392072       5.06787719      10.16263161       0.23711797      -0.56236780      -0.48330892      -0.13242938       0.52680061      -1.16401646
N        2.22983417       6.40025319       8.04964131      -1.17528192      -0.89700553       2.69188393      -0.18478138       0.52713805       0.45053350
Pb       5.03797298       2.95534967      12.30280354      -0.20465434      -0.57536365      -0.04356487       1.60992412      -3.22308938      -3.96775804
Pb      24.32901565       2.28812085      13.11377873       0.26614091       0.24068106       0.15912230       3.29262597      -3.23470347      -0.86529939
Pb       5.56889459       8.89611240       6.01604905      -0.62936404       0.11887095      -0.31328987       4.70918946      -0.52289765      -1.85143324
Pb       5.05159160       2.54667974       5.60552063      -0.07153526       0.01689551       0.39537661      -1.94841229      -4.74643174      -1.92367375
I        8.09491793       2.28764321      13.48053419      -0.22560147       0.05145881       0.05280221      -0.30889241       3.06577437      -0.51814097
I        1.75169717      15.55896697      11.56129834       0.23807499       0.25977799       0.27996967      -1.26774639      -3.24324087       0.52324139
I        1.68768943       2.11101944       5.47137685       0.09441878       0.09453007       0.23857860       2.32722471      -2.14405629       1.92329264
I        8.21183753       2.89722822       6.06255547       0.11542578      -0.28497784      -0.08727888       2.14173869      -1.18592554      -0.42130807
I        5.26526755      12.41803723      12.24687501       0.07315112       0.10716986      -0.03945167      -2.34847958       1.54319439       4.57949909
I        4.85319786       5.77491400      25.07220846      -0.11219136       0.32132003       0.06831675      -4.34276775       0.24977394      -0.80766578
I        4.99461229       5.96095555       5.69843648       0.10932203      -0.21340355      -0.07679818       0.05918568      -0.59244567       0.84697592
I        4.96618389      12.30098656       5.95973701       0.09654351       0.01385036      -0.15613412       0.67235767       1.15398532      -6.09444271
I        4.53541635      15.14711948       2.40672853       0.15139542       0.05467837       0.41380570       1.38605692      -2.30181650      -2.08871587
I       24.30184204       2.38539784       3.52381821       0.06050916      -0.04680356      -0.03095522       1.78665446       3.01982450      -1.15195982
I       23.77414785       2.05359786      10.05927406       0.09577907       0.06085435      -0.06140360       0.45478659      -0.75847103      -3.11309785
I        4.85304725       2.78377073       8.90848311       0.03625469       0.03313938      -0.07270359      -0.37017621       0.93048909       5.41359885
H        1.19054493       7.01091908       2.72283203      -0.14246351      -0.25968321       0.35942053       0.20518719       0.14552200      -0.12675599
H        2.07572066      13.75864358       2.78851212       0.10645757       1.33693744       1.18600873       0.02214627       0.37764412      -0.51658221
H        2.95423104      13.37788184       9.50083855       0.37017263       0.07754363      -0.29515382       0.12362705       0.01514495      -0.29665637
H        2.93830864       4.86153538       9.40782804      -1.07983713       0.45360487      -0.26874310      -0.24518913       0.22651483       0.21006284
H        3.32755661       6.58523233       1.50923391      -0.86882383       0.48960081       0.21242222      -0.08928064      -0.14807559      -0.16388636
H        0.28166793      12.32771513       3.74291828      -0.42402898       0.37953819       0.51432006       0.12424323       0.20761707       0.18505502
H        7.17192843       6.33371280       7.63276373      -1.87023965      -1.01146511      -2.82367826      -0.05005590      -0.17556611      -0.10572192
H        0.54426896       5.05947177      10.48611100       0.30091252      -0.56798616       0.66063316      -0.38674323       0.08531585      -0.12927415
H        7.96204945      11.90989841       1.10290975       0.56989136       0.75117381       0.41741903      -0.08817489      -0.26273305       0.29644606
H        7.92155170       7.12909620       2.28864147      -0.36504895      -0.15532694      -0.79960879       0.01172329      -0.01289467      -0.04817201
H        7.27927202       7.03036392       9.30152708       0.07201643       0.15288705      -0.05229726       0.05515658       0.37634866      -0.23054129
H        0.21777353       6.49179630       9.58370406      -0.58811705       0.33189792      -0.02392392      -0.14661069      -0.00983104       0.26648084
H        8.42259895      10.85520267       3.57339214      -1.10848411      -1.28358017      -0.42473261      -0.17028985       0.09501543       0.16691497
H        9.51348803       7.10266012       4.16205796      -0.11027201      -0.17659049      -0.07492432       0.16461576      -0.27967182       0.26145194
H        8.92388952       5.77056003      10.85840064       0.07836090       1.40423951       1.27661593       0.14793523      -0.17160128      -0.08993726
H        7.29575430      10.78184690       8.67541231       0.47260656       0.61391924      -0.16349143       0.03127318       0.06639826      -0.25594834
H        0.40456660       5.43812038       4.39088996       0.58076235      -0.00043119      -0.45375462      -0.21698302       0.09186797      -0.08288269
H       10.06892151       5.34973552       4.63537941       0.54168364      -0.25972454       0.81021720      -0.01832745      -0.01599500      -0.25582044
H        3.15921350      11.96535800       7.73736369      -1.13475821      -1.07381254       0.83241890       0.30477660       0.04833103      -0.11161704
H        7.13480692      12.15151454       7.52710189       1.07423392      -0.46911285       1.77080777      -0.15744982       0.22078044      -0.00493954
C        1.77670270       6.10859452       2.96429522       1.36834030       0.07768500      -0.83560315      -0.07253758       0.43799687      -0.90873918
C        8.80200517       5.23480670       3.03028452      -0.97546193       1.19817363      -0.27123890       0.44289379      -0.95484016       0.65794969
C        8.43857330       5.28138113       8.86066748       0.96266794      -1.99027756       0.01690350      -0.57790106       0.66347768       0.18532747
C        8.21131953      12.76520924       9.36771772       0.18582264      -1.22691394       1.33396840       0.25090574      -0.63115174      -0.13509351
N        8.61069992      12.68807413       1.55023943       0.52028996       2.07533161      -1.38778582      -1.17269927      -0.80396882       0.39787677
N        8.02595283       5.98149656       2.10824862       1.71047553      -0.84126687       1.65180905       0.82255938       0.41588602       0.12094770
N        7.60896800       6.32394168       8.52788227       1.51208571       0.55128141       2.45433228      -0.23617308      -0.70402782      -1.12450298
N        0.84141867       5.69750539       9.75843456      -0.37345999       0.54063829       0.32100548      -0.38920738       0.15240244       1.12384386
N        8.94701770      11.70441014       3.76227436       2.45590133       1.52203947       1.30320731       0.35890213       1.41514606      -0.91498968
N        9.46151274       5.93654012       4.02536885      -0.21551855      -0.57997131      -1.04457339       1.19577782      -1.17065516       0.36717465
N        2.39853142      11.66063082       8.43370296       1.17156172       0.63096296      -1.12103279      -0.74832942      -0.15221162      -0.14618037
N        7.59410128      11.79403007       8.45285626      -1.96563891       0.45031877      -2.35725960       0.12306254      -0.23932651      -0.02482074
Pb      25.00656626       8.95177474      13.31209696      -0.40468710      -0.44178628      -0.16758646       1.24871769      -3.75074775       1.26035635
Pb       5.72241786       9.01630510      12.47383656      -0.17908914       0.32280410      -0.15235858      -2.27064260       2.35281550       2.48916699
Pb      24.47119698       2.19799869       6.54722105      -0.11153621       0.09754592       0.11950932       4.14098940       2.36454347      -2.14557944
Pb      24.80735518       8.65711712       6.84809953       0.06332618      -0.07185228      -0.49424149       0.42423558      -3.84072173      -0.62099657
I        2.11363078       9.11207117      12.67470299      -0.31635169       0.14751045       0.16671852      -2.39402370       0.65358618      -2.74468951
I        8.49069683       8.89385541      11.65373773      -0.03677425      -0.12179418      -0.11930618      -2.87087016       3.33603195      -1.98322989
I        8.56495887       8.56631669       6.16992258       0.22275111       0.23429462       0.14462304       0.91953894       1.09813685       3.68172802
I        2.04047018       8.99211537       5.33974409       0.07977232       0.11269767       0.15265672       0.03513810       1.85872361      -2.89981577
I       24.53375765       5.55185379      13.55154828       0.00446610      -0.03602380      -0.04327571      -0.83832097       0.23403255       1.37913804
I       23.89290977      12.11555957      26.23390883      -0.04840269      -0.00370997       0.02777890      -0.92216058      -2.31718921      -1.50670755
I       24.78982197      12.04227977       6.93086307       0.19635616      -0.17282097       0.01405052       0.00542133       0.72216914       0.27601386
I       24.35183153       5.26862259       6.89040574      -0.07435505       0.71197138      -0.06756020      -0.91274137       0.31402819       0.64032986
I       11.67550181       8.69817370       3.05800682       0.10506415       0.09925672       0.26468247       1.17884916       1.36769613      -1.33370785
I        6.64285496       9.33330041       2.64624201      -0.13419121       0.01432473      -0.29468827       1.73389666      -4.20904739      -1.94726866
I        5.14786655       9.16490627       9.01781192       0.03248160      -0.11349827       0.09061004       2.30934010       1.66701615       0.78122510
I       25.39719579       9.02533307       9.83982491       0.00793523      -0.16837327       0.21219456      -3.32698863      -1.16672789       0.96518183
H        9.23043347      13.18783968      16.21344852       0.09253802      -1.26914760      -0.08231214       0.25412138      -0.17962730       0.01792224
H        9.06484359       4.53069260      16.27337367       0.26313326       0.31688516      -0.31061247       0.39324471      -0.08121847       0.41852282
H        7.14674134       4.06566209      21.38801427       0.00665662       0.39070418       0.17469227       0.06541504       0.35536833       0.20757873
H        8.95201148      13.46249590      21.45505160      -0.46491019       0.51019557      -0.10339185       0.24238772       0.18366813      -0.09327851
H        7.64523428      12.64671599      14.45536968       0.29010382      -0.12240046       0.57292223      -0.19343606       0.09208409      -0.08678458
H        7.14833689       4.58155798      14.89394034      -0.34696979      -0.89761051      -1.25168289       0.11027161       0.10016947       0.07087408
H        0.45571840      13.34601035      23.25302568      -0.39796401      -0.03670711      -0.01405506       0.04949766       0.10279006      -0.32378571
H        9.75449562      13.07349657      23.81929320      -2.24660850      -1.63882933      -0.98265585      -0.03486193       0.14774518       0.26259472
H        2.46585675       5.35614198      14.33644304      -0.28834596      -0.26902895       0.81827223      -0.01653833      -0.10324059      -0.52882950
H        0.43412505      11.25394336      15.22764917      -0.00815685       0.49089000       1.07387375       0.24323607      -0.20618891       0.01349235
H        0.49006972      11.53810898      22.52424583      -0.77477892      -0.38138425       0.71045417       0.12914609      -0.01186233       0.02003009
H        8.29867376      11.93384311      24.40665753      -0.12247131       0.04207274      -0.52052502      -0.15865578       0.08076429       0.25917859
H        1.81681226       4.53475381      17.01837668       0.46849185      -0.53595557       0.19934930      -0.02681512      -0.22949843       0.00064310
H        2.30085302      11.87495026      14.00364530       0.25164073       0.00747067      -0.01795953      -0.14865847      -0.06005965      -0.28559199
H        2.37580343      10.77123888      21.00909852       1.01038454       1.49321134      -0.24435237      -0.23274167       0.22970288       0.15057273
H        2.50536669       7.57668589      20.61211699      -0.62907955       0.98811870      -0.05726543      -0.05254538       0.20835337       0.10217049
H        9.52447253      11.75294500      17.95697036       1.34777559       0.38920983       1.34000931       0.17569600      -0.05184305      -0.05619692
H        3.16846368      13.35681298      14.30573965      -0.62882965      -0.03501803       0.41535824       0.27381125      -0.03435615      -0.13648019
H        8.75802076       3.89109746      23.43666999       0.77944510      -0.91378106      -0.29610519      -0.04006475      -0.15092932       0.28744113
H        3.33634026       5.96627844      20.39243373      -1.07593678       0.27465027       0.87046945      -0.18019713       0.37201196       0.42266414
C        8.71237219      12.18219724      16.22695724      -2.33612525       1.07212178      -0.19898743       1.23617854      -0.91479786      -0.59524233
C        1.56169502      12.89720757      15.53636403      -0.60891902       1.23228311       1.43101126      -1.00186937      -0.17039720       0.48910045
C        1.83380560      12.87110517      21.75023002      -2.65297049      -1.29108692       1.22068478      -0.26854034      -0.16530232       0.54379948
C        1.95590944       5.98898352      22.08379194      -1.48546749       4.18284231      -2.53706068       0.15451927      -0.27669674      -0.72750782
N        1.65394976       6.09070982      14.60311779       0.25666040      -0.48582633       0.37739611      -0.04903468      -0.50247486      -0.22879269
N        0.66135302      12.03479292      15.93772874      -2.39519003      -0.69870117       0.89569186      -0.98802372       0.56000739      -0.03676110
N        0.74741234      12.62673075      22.55071015       1.70388156       0.03687237      -1.52848105      -0.51169804       0.36562542       0.76452736
N        8.79780102      12.55664502      23.56057170      -0.04370951       2.33302737      -1.39416690      -0.04768677       0.31595969      -0.22534873
N        1.19627619       5.40757778      17.06187774      -1.75355407      -0.66259857       1.25969537      -0.40438700      -1.19187535       0.57863018
N        2.39558953      12.71868774      14.57365657       1.26302758      -0.98794300      -2.16112619      -0.62491866       0.67498199       0.68930734
N        8.21882210       4.78915838      23.24087233      -2.26194846       0.52721082      -1.52743182       1.29243175      -0.08601620      -0.68985706
N        2.59478532       6.56217153      20.96048071       1.18129925      -2.64646025       0.65356310       1.28044770       0.38171310      -0.23424753
Pb       4.33154059       2.63718319      25.22378358      -0.16371577      -0.02554554       0.00368646      -2.78375914       5.51133896       7.59892265
Pb      23.95381221       2.26974459      26.18831128       0.00514125       0.45289531      -0.15414680      -0.67923588      -2.79380528       0.25080203
Pb       5.09311996       9.16959610      19.00090822      -0.13682910      -0.21101422      -0.24070237      -2.44999757       0.37333316      -4.54318577
Pb       4.69900891       2.70912239      18.73083204      -0.14634740      -0.44138834      -0.32159757       1.23954475      -6.70566178      -1.19633956
I        7.43999127       2.63425982      25.75729561      -0.04521008       0.04091405       0.15405645      -3.33114522      -1.98912726       2.12115142
I        1.20308504      15.46262749      24.89756601       0.23197315       0.16770220      -0.04260002      -4.36279165       2.35107246       1.27549514
I        1.23894721       2.32008450      18.35101504       0.27501671       0.05027806       0.51378605       0.85508473       3.99216472      -1.18025830
I        7.50793330       2.43492288      18.91595766       0.93372636      -0.13999873       0.16133368      -0.62417785      -0.88627567      -1.73241052
I        4.60406844      12.28259733      24.98510319       0.18266742      -0.36955067       0.01150350       2.85375477      -3.42063533       0.32601974
I        5.41175960       6.17999203      12.18367741      -0.10756009      -0.48155767       0.02460197       1.18786870       1.38133514      -1.78426262
I        5.15608589       5.75559574      18.76843638      -0.13381086       0.03545191      -0.27883165       2.26993062      -2.51613746      -0.25186819
I        4.96691765      11.97515151      18.48136078       0.25986885       0.41093916       0.03055640      -0.63695795      -1.20097121      -1.71037805
I        4.92199740      15.13799254      15.18132074      -0.16649082       0.26733664       0.12171553      -0.72926698      -0.16076420       2.32752617
I       24.30810893       2.11421831      16.63965788      -0.07615453       0.14236767      -0.44134270       0.61795651      -3.46032886      -0.40040220
I       23.84019060       2.28279969      23.02774032      -0.05115503      -0.10590949      -0.01934592       0.19784843      -1.95000460       0.48433305
I        4.35563412       2.90189753      21.80288334      -0.03762882      -0.04539474       0.08688185       1.05852325      -0.00888875       1.74668193
H       -0.03198999       6.92317940      15.82306360       0.84599283      -0.28696703       0.02500125      -0.03022813      -0.14340675       0.21212722
H        1.56440470      13.85235488      16.06359294       0.60034495       0.58602827       0.56471766       0.06104715      -0.19245518       0.13006713
H        2.02383810      13.95304903      21.64067265       2.11684850       2.56870380       0.35454284      -0.05857263       0.01874350       0.14532493
H        2.18259600       4.93638138      22.17803466       0.51473289      -1.92467304       1.25788973       0.03944715      -0.50159662       0.12467829
H        1.47891311       6.86155652      13.88033622       0.08974838       1.38111896      -1.38257411       0.12788755      -0.17968210      -0.22515947
H       -0.04800576      12.23040547      16.77746700       1.64953697      -0.82079111      -2.27260857      -0.08705104       0.02900757       0.12595068
H        5.63408618       6.07265118      21.13175377       0.54404704       0.38051737       0.47751815       0.17096398      -0.25220855      -0.05023893
H        0.67380410       6.55736091      23.88709393      -0.11349395      -0.66270728      -0.17244334      -0.08396571       0.20339918      -0.01677459
H        7.13909472      11.21381649      15.35410978      -0.23841799      -0.26663718      -0.19085404      -0.33729592      -0.08329663      -0.02560608
H        6.21405036       5.93838252      15.79223818       0.71799176      -1.02905270      -0.50174447      -0.11363054       0.05255914      -0.20833624
H        6.52071843       6.91031184      22.68826065      -1.00419194       1.43217451       0.09117870       0.17548548      -0.02009557       0.10951120
H        1.02193923       8.01227643      22.77162277      -0.23972857       0.16069777      -0.63799216      -0.04598401      -0.21610663      -0.01890937
H        8.46024716      10.55830017      17.62715886      -1.70815076      -1.86529897      -0.52955751       0.29305230       0.21540488       0.10895395
H        7.43897643       6.74811374      17.71598971       0.35552040       0.22953134       0.25646032       0.20977893      -0.32175873       0.06824363
H        8.23430658       5.49363437      24.00694387       0.16938948       1.04272137       0.61853373      -0.08149516      -0.14108154       0.18543409
H        6.43358226      11.53255069      22.59216711       0.37201276       1.17260706      -0.27380775       0.11174765       0.40721570      -0.09695169
H        0.30988249       5.28880425      17.79509950       1.05100827       0.24945766      -0.81643128       0.03180465       0.20754529      -0.06158596
H        9.29960328       6.18894761      18.09251560      -0.02855040      -0.57832272      -0.24006429      -0.10087727       0.16861447       0.24607419
H        3.47670299      12.18300790      20.51905081       0.11487231      -0.12432695      -0.84887769       0.01392611       0.08495803       0.05386614
H        6.74670127      12.41427777      20.98615429      -0.92970226       0.58794183      -1.33839201      -0.09104585      -0.09844471      -0.29560423
C        0.93760264       6.16983056      15.83483171      -0.70438414       0.87760010      -0.65232951       0.43071388      -0.83846173      -0.35039658
C        8.24193686       5.31441771      16.41804583       0.82736724      -1.63653868       1.32229004       0.04779284      -0.23168355      -0.42609869
C        7.25388053       4.97115831      22.16054675       1.50735757      -1.76318881       0.51313632      -0.80918922      -1.21432119      -0.06912600
C        8.22552150      12.84048063      22.30062131       1.37510752      -2.86682893       2.45779787      -0.13029206       0.42489719      -0.78548507
N        7.74126263      12.04240961      15.29556304       1.40235863      -0.23302001       0.90568251      -0.44352987      -0.07564166       1.12802424
N        7.10178741       5.25192038      15.63389211      -0.55811743       2.45294958       1.48809879       0.59900643      -0.37222073      -0.05159632
N        6.42813289       6.08634133      21.94147970       0.55976988      -0.89611882      -0.05801574      -0.71006713      -0.04295980      -0.42064745
N        0.99941123       6.77706730      22.79806536       1.45314676      -0.71078902       0.75006047       0.00407741      -1.14892939       0.83744346
N        8.79189284      11.45606745      17.35765615       0.93111381       2.57375650      -2.17304853      -1.16339072       0.39912557      -1.47016985
N        8.35232067       6.09141830      17.49299247      -0.91021898       0.94422363      -0.89672456       0.38458251       0.57359891       0.40364808
N        2.55674971      11.91308761      20.98487201      -1.41551975      -2.20805449       0.44872168       0.26460561      -0.04541479      -0.55612357
N        7.00164366      12.27661318      21.98645552       1.88665030      -0.22844804       1.87693216      -0.93008030       0.56874910       0.55786768
Pb      23.93139891       9.06843985      26.27897174       0.19825320      -0.50565861      -0.07779450      -1.37582998      -0.15660556      -0.35493138
Pb       4.85738666       9.08428455      25.32325994      -0.03343526       0.07375729       0.31547900      -3.51679288      -2.87795639      -1.22845989
Pb      24.24800564       2.63498754      19.69438645      -0.40478042      -0.56275505      -0.08760265      -0.18340788      -0.33587287       2.92041814
Pb      24.38898566       8.91160826      19.68831007       0.25038011       0.01754236       0.34246858       0.13312453      -0.30374349       0.62822038
I        2.12093790       9.21327097      -0.14418797       0.30808364      -0.14168127       0.17962023       0.50618481       0.04599485      -2.84539743
I        8.05320541       8.91397780      24.56534672       0.00910676      -0.08081899       0.02914112      -0.75342719      -2.91057298       0.21495028
I        8.23335597       8.92649007      19.65722680      -0.16073152       0.05582077       0.03324469      -0.36393789      -2.07785902       3.98978293
I        1.68737140       9.01938155      18.47450091       0.06654015      -0.01502189       0.14576576      -2.47961596       0.12698028      -0.10151058
I       24.52336744       5.60386360      26.27598871      -0.24450296      -0.02533202      -0.06847579       1.64346725      -1.36377439      -0.56839038
I       24.57246271      11.91799363      13.48822758      -0.08527022       0.24917901      -0.09001596      -3.83465207       1.41653002      -1.37758123
I       25.09396396      12.09802174      19.68960511      -0.54800008       0.00514126       0.02628382      -2.89353390       1.59988430      -1.57059994
I       23.91182799       5.68277374      19.94924103       0.19971080       0.10367793      -0.05372047      -1.34731269      -1.47837784       3.02331245
I       11.36506928       9.16450834      15.89558101      -0.11153109      -0.16365860       0.18729667      -3.18641508      -1.14388989      -0.42433858
I        6.19306996       8.79453451      15.51818514      -0.13900563       0.03366762       0.32956510      -0.70634378      -1.26508486       2.52482651