768
Lattice="40.227587415121015 -0.7682833808457515 1.3263590934115383 0.394859312395313 23.52400323722727 0.25591382290307674 -0.5366011814355014 -0.10491616676151522 18.726843227480614" Properties=species:S:1:pos:R:3:forces:R:3:momenta:R:3 pbc="T T T"
H        6.47122575       1.52926101       4.21489419      -1.09418513       0.12587716      -0.13728468      -0.19821028       0.06512287      -0.03787776
H       11.33256424      13.24551454       1.71624598       0.32221707      -0.72841530      -0.11600113       0.07248098      -0.03521563       0.13130744
H        1.10030907       7.30613892       3.95178506      -0.47296630      -0.31579069       0.06654295       0.04305183       0.03784779      -0.01607647
H       16.78456537       6.62146000       2.00495118      -0.01280364       0.11185764      -0.08968167       0.23160663       0.03608004      -0.04024090
H        6.37203049       3.39569340       7.43181094      -0.06352328       0.26751762       0.13440611       0.17254043       0.02157947      -0.05902376
H       11.05244292      11.39634404      18.93659986       0.00262091      -0.20324100      -0.07602593      -0.18983343      -0.04685021       0.10118618
H        3.03350805       6.78014861       7.40816340       0.04885660      -1.17847308      -0.59244806      -0.02769248      -0.16288030       0.23498298
H       14.98013747       7.74846899       1.08291049      -0.56213400      -0.57367997       0.21870231       0.14734566      -0.05517605       0.16785878
H        3.40061177       1.92223334       4.19239189       0.55175524      -0.60364744       0.16485020      -0.00562405       0.07419532       0.03734630
H       13.27716325      11.11740205       0.60736284      -0.25984629       0.24938846       0.41997442       0.05215493       0.01910048      -0.01175073
H        3.83217389       8.19176217       7.99563950       0.92621041       0.37620574      -0.28493853       0.05069941       0.12543190       0.06056896
H       13.91815791       6.22523902       1.21828885      -0.25095023       0.14869130      -0.17369200       0.16230007       0.03824170      -0.01326556
H        4.70694423       3.58995195       2.75798817       0.60042332      -0.73231108       0.55374002       0.11402576      -0.08979111      -0.09325902
H       13.93997380      12.31904721       2.96386154      -0.06586619       0.83336689       0.46128400      -0.11704512       0.00604185       0.08713109
H        3.87910238       8.12702279       3.01106188      -0.54621309      -0.61261196      -0.11887614       0.15265853      -0.09115746       0.16210590
H       14.86734870       4.23083597       2.29056948       1.17829939       0.29350387       0.08978499      -0.02870054       0.07673078      -0.13588615
H        6.45706090       3.38275992       2.94937526       0.91120456       0.17694347      -0.44541889       0.02768768      -0.13828436       0.04106738
H       12.92155392      13.75145822       3.51479900       0.23464433      -0.38310708      -0.38383037      -0.03006882       0.02480522      -0.12249065
H        3.01476671       6.45159718       2.90583696       0.11917329      -0.17789666      -0.29475324       0.11273832       0.18928851       0.11063471
H       15.03504586       7.53443461       5.48216983      -0.02253218      -0.48009094       0.47311673      -0.04110605      -0.12705045      -0.26633384
C        5.44296148       1.97192990       3.93001751       1.23788408       0.27344711       0.51581880      -0.21415620       0.60487517      -0.25245854
C       12.26189763      12.60484257       1.79201872      -0.97852160       1.00879969       0.14236456      -0.71997095      -0.11649051      -0.05859516
C        2.00261410       7.93175474       3.87369882       1.20129804       1.06567298       0.03755828      -0.28665078       0.08276661      -0.04324495
C       15.82634589       6.06719283       1.90141051       1.00575279      -0.44521162       0.30306513       0.34795938      -0.48425705       0.81570578
N        4.32448271       1.46115779       4.40312695      -0.53027745       0.67885827      -0.56695819      -0.44309203       0.21307817       0.15133935
N       12.40099856      11.62984931       0.86369274       0.05690202       0.27603053      -0.17081559      -0.10048902       0.38980344      -0.26277755
N        3.02035881       7.59747338       7.96547600       0.44689694      -0.25283970      -0.28989848       0.19888863       0.43426588      -0.65403183
N       14.79221597       6.75160761       1.42722155       0.09625930       1.18926778      -0.63348845       0.03400085       0.23459281      -0.06809346
N        5.53995857       3.09496658       3.24815264      -1.60094183       0.32740371      -0.28281956      -0.25763188      -0.52453640       0.44515626
N       13.11991885      12.96259904       2.81303970       0.64998654      -1.04281108      -0.16760953      -0.36779457       0.11189938      -0.46815535
N        3.05491325       7.43216571       3.25138390       0.11809635       0.81193496       0.53177052       0.10425015       0.51186246       0.13570851
N       15.81773566       4.72229302       2.25126752      -1.85378618      -0.35960711      -0.17774219       0.31581345       0.45645822      -0.34207103
Pb      40.22525817       2.41946430       2.58569506      -0.14522309       0.37239378       0.11951837       1.66678014      -1.87106258       2.33336975
Pb      17.97001738      10.97755098       4.56053996      -0.09143287      -0.03391497      -0.22031610      -2.00178752      -1.31772484       1.32026060
Pb       7.85138053       9.14837296       1.82931915      -0.09540391       0.08537736      -0.12868505       2.28238188      -2.59867165      -0.90966485
Pb       9.79725148       5.49563083       4.08307483       0.09252394      -0.06799109       0.00777992       0.72931932      -1.13181372       2.28720263
I       39.08149722       4.58038616       5.03892166       0.07343592      -0.17812017      -0.20342888      -0.61738859      -0.08962982       0.66724881
I       39.03190157       8.66891746       2.54245398      -0.09164651       0.06925769       0.09773900       1.04780014       1.81120687       0.01973537
I        8.52147767      11.05081730       4.07376488       0.43777340       0.22461305       0.30967272       0.73531655       0.49099724       0.07673375
I        8.77433353       3.52142760       1.69324173       0.18641636       0.00373334      -0.07572480      -0.99734853      -0.10290103       1.13540124
I       16.98317304       1.42352004       1.94103370       0.10267013      -0.13646010      -0.00152510      -1.00805492      -0.78785353       0.16533124
I        0.97904625      12.80450212       3.78161925      -0.05200867       0.08143791       0.02953659       1.90105281      -0.32826899       0.57676237
I       10.80447124       7.77828944       1.83993048       0.04237463      -0.19988375       0.01858653       1.82758656      -0.54313194      -0.33261694
I        6.89533838       7.08580137       4.09394281      -0.11916645      -0.26949158       0.02287096       0.36373047      -2.12748160       0.07664120
I        2.87388946       4.50803147       1.20734915      -0.04210040      -0.10201334      -0.04668365      -1.06607727       1.09623619       1.54253035
I       15.07983194       9.79392774       4.28688116      -0.08429987       0.16458441      -0.10669365      -0.45581517      -0.90902949      -0.14024698
I        4.84366147      10.36467986       2.09032971       0.08927116       0.03968493      -0.16606608       0.04119371      -0.16053018       0.76349278
I       12.70736521       4.29186288       4.61837379       0.04421054      -0.18603455      -0.21696248      -0.87078682      -0.83511421       0.39239259
H        6.29680612       1.59340857       8.70897386       0.67019091      -0.92073242       0.05688455       0.02472536       0.12017538       0.08103570
H       11.46660769      13.15258251       6.65332615      -0.51210530      -0.29190205       0.00126569      -0.20189969      -0.20144606      -0.06198126
H        1.08443898       7.27180661       8.57185938      -0.48079800       0.13432882      -0.15790405       0.02078573       0.01924637      -0.26606875
H       16.86890944       6.54901888       6.67781431       0.37397032       0.26055502      -0.15095513      -0.25225459       0.18006312       0.04844280
H        4.33836127       0.57655858       4.89437262      -0.02783320      -0.34757717       0.27248402      -0.13193607       0.19512883      -0.08306566
H       11.03504282      11.07613529       5.66078377      -0.05483722      -0.34272879      -0.23106582       0.16044068      -0.09253826       0.10258013
H        1.14809982       9.48600074       4.82297247      -0.68470314       0.35279519       0.50147108       0.07716291       0.11416373      -0.10984400
H       16.56780838       4.57778138       7.81811666      -0.21357786      -0.18330502       0.20975078      -0.18597562      -0.03746077      -0.12905195
H        4.61508712       3.78547101       7.58313805       0.94598794      -0.78871643       0.06261803      -0.05051791       0.20606288       0.01097542
H       12.69780598      10.50791465       5.76645622       0.72957873      -0.54206230       0.05725419       0.06147689       0.20088817      -0.22843575
H        2.85100501       9.79770669       4.49282448      -0.44248020      -0.39893684      -0.25509696      -0.10413000      -0.03830519       0.07362499
H       14.78863886       4.52374181       7.56381039      -0.18365566      -0.05997501       0.01594355       0.03613718      -0.01248022      -0.07145318
H        3.27258260       1.74429256       8.83369188      -0.61856873       0.71187890      -0.35620588      -0.03902205      -0.08555810      -0.15789242
H       14.23048505      12.26527202       7.16243339       0.23158455      -0.25286465       0.01036338       0.08236170      -0.06088402      -0.06864572
H        2.73240204       9.73087962       9.32194966       0.26811359      -0.15085500       0.11923364      -0.02190721       0.06270753      -0.09905008
H       13.95106396       6.23438444       5.92831610      -0.38866756      -0.44214331       0.16824900       0.03604598      -0.11040998      -0.04611589
H        4.34958690       0.55910337       9.39773543       0.03053826      -0.95837220       0.60397964      -0.13764308      -0.04878781      -0.06577217
H       13.34516139      13.74929604       7.49944085       0.21456109       0.34024463       0.34953636       0.02305155      -0.01493355      -0.04937936
H        1.05598072       9.41503738       9.71028089       0.09362526      -0.30803603      -0.10972962       0.03956117       0.09117928      -0.05768010
H       16.65425804       4.26621303       2.63420953       0.42257491      -0.14454946       0.50444299      -0.04078506      -0.02619035       0.09868999
C        5.33221818       2.02866829       8.48521522       0.52538217       1.81339141      -1.12859609      -0.24813649       0.13111675      -0.08208013
C       12.24569672      12.36228757       6.62871605      -0.78122522      -0.40608040      -1.05985540      -0.54669583      -0.23437685      -0.25516658
C        1.94161610       7.96470606       8.56361980      -0.36428633       0.38428368       1.08611027       0.38684438      -0.15745385      -0.65690523
C       15.88005480       6.08891081       6.69319605      -1.86521682      -0.73800446       0.08554098       0.20371080       0.16642561      -0.14351739
N        5.44826406       3.18674148       7.83198118      -1.23866825      -0.21134304       0.37900766      -0.16529639      -0.19191810       0.45290910
N       11.97864197      11.15264195       6.06790312      -0.94166031       1.30851940       0.30122201      -0.15729547      -0.37729856       0.11521919
N        1.99756918       9.20821348       4.36474104       0.77485044      -0.69278682      -0.47587722       0.20825005       0.04981565       0.21241273
N       15.70338509       4.96369650       7.39849066       1.07536913       0.49398145      -0.18248889       0.58773440      -0.16965265       1.05160651
N        4.23496103       1.41224609       8.88082764      -0.06451354      -0.04090241       0.36920417       0.03768953      -0.50340614      -0.46009363
N       13.36260144      12.79144912       7.12305479       0.88191021       0.33400374       0.47421537       0.33211124       0.25651316       0.28563804
N        1.92629500       9.06281415       9.27544063      -1.08636927       0.75334067       0.20475564      -0.07980334       0.40791451       0.04604269
N       14.86319979       6.67010613       6.06040359       1.18853138       1.25796548      -0.60930248       0.21486720      -0.19152767       0.00597067
Pb      -0.04435624       3.34013978       5.88753388      -0.30885156       0.10126896       0.12622915      -1.69161466       0.32886261      -4.70036267
Pb      17.75697557      11.03594748       9.05370224      -0.02514660       0.05895610      -0.17692128      -0.20560361      -1.94207567      -2.14800886
Pb       7.68596981       8.99788069       6.53701358       0.25489262       0.17328643      -0.06349367       2.29694880       0.90507743       0.13969201
Pb       9.75524247       5.53081875       8.80486708       0.01076725      -0.07333899      -0.06500829      -1.44458286       0.65731738       0.92370959
I       39.01070672       4.60457796       9.64357309       0.24122218      -0.32652755       0.02635626      -0.39211557       1.17401439       2.43330922
I       39.05914081       8.42546055       7.42257709      -0.16968164       0.31903840       0.08949457      -0.59400504      -0.84705958       0.88928697
I        8.76635290      11.08077684       8.91228069      -0.09404642       0.04274476      -0.12657565      -1.32224900       0.98663016      -0.61121577
I        8.81918165       3.43348582       6.45408219       0.05825855       0.02711309      -0.01794669      -0.62630970      -1.23880402       0.59883607
I       16.77917207       1.61373064       6.34372740       0.26819426      -0.29871826       0.25746138      -0.72431567      -0.17535019      -1.24305075
I        0.78650114      12.90285661       8.53711900       0.00100927      -0.11321594      -0.11429751      -0.52371547      -0.18575743       0.06038278
I       10.77783181       7.54101298       6.33772538      -0.01064752       0.07794661       0.16715993       0.11550750      -0.95082549       0.14820094
I        7.03018016       6.80445290       8.70450700      -0.51358679       0.05773618       0.06211146       1.61418988      -1.04920762      -1.82406320
I        2.78504312       4.48978185       5.79834456      -0.01394551       0.20497993       0.06195981       1.63010837       0.01881620       0.37153105
I       14.94858479       9.76692331       8.64808310      -0.03437352      -0.06015544       0.14503153       0.17006294       0.41628624      -1.28440965
I        4.84654155      10.17392617       6.71311259      -0.18644619       0.20602940      -0.08718404       2.50636304      -0.35123357      -2.61217597
I       12.54888785       4.17730006       9.05085805       0.30345124      -0.31276365       0.04885285      -1.12707586      -2.45437940       2.24523251
H        6.20292516       1.47680293      13.57831580      -1.09418513       0.12587716      -0.13728468      -0.19821028       0.06512287      -0.03787776
H       11.06426365      13.19305646      11.07966759       0.32221707      -0.72841530      -0.11600113       0.07248098      -0.03521563       0.13130744
H        0.83200848       7.25368084      13.31520667      -0.47296630      -0.31579069       0.06654295       0.04305183       0.03784779      -0.01607647
H       16.51626478       6.56900192      11.36837279      -0.01280364       0.11185764      -0.08968167       0.23160663       0.03608004      -0.04024090
H        6.10372990       3.34323532      16.79523255      -0.06352328       0.26751762       0.13440611       0.17254043       0.02157947      -0.05902376
H       11.32074351      11.44880213       9.57317824       0.00262091      -0.20324100      -0.07602593      -0.18983343      -0.04685021       0.10118618
H        2.76520746       6.72769053      16.77158501       0.04885660      -1.17847308      -0.59244806      -0.02769248      -0.16288030       0.23498298
H       14.71183688       7.69601091      10.44633210      -0.56213400      -0.57367997       0.21870231       0.14734566      -0.05517605       0.16785878
H        3.13231118       1.86977526      13.55581350       0.55175524      -0.60364744       0.16485020      -0.00562405       0.07419532       0.03734630
H       13.00886266      11.06494397       9.97078445      -0.25984629       0.24938846       0.41997442       0.05215493       0.01910048      -0.01175073
H        3.56387330       8.13930409      17.35906111       0.92621041       0.37620574      -0.28493853       0.05069941       0.12543190       0.06056896
H       13.64985732       6.17278094      10.58171046      -0.25095023       0.14869130      -0.17369200       0.16230007       0.03824170      -0.01326556
H        4.43864364       3.53749387      12.12140978       0.60042332      -0.73231108       0.55374002       0.11402576      -0.08979111      -0.09325902
H       13.67167321      12.26658913      12.32728315      -0.06586619       0.83336689       0.46128400      -0.11704512       0.00604185       0.08713109
H        3.61080179       8.07456471      12.37448349      -0.54621309      -0.61261196      -0.11887614       0.15265853      -0.09115746       0.16210590
H       14.59904811       4.17837789      11.65399109       1.17829939       0.29350387       0.08978499      -0.02870054       0.07673078      -0.13588615
H        6.18876031       3.33030184      12.31279687       0.91120456       0.17694347      -0.44541889       0.02768768      -0.13828436       0.04106738
H       12.65325333      13.69900014      12.87822061       0.23464433      -0.38310708      -0.38383037      -0.03006882       0.02480522      -0.12249065
H        2.74646612       6.39913910      12.26925857       0.11917329      -0.17789666      -0.29475324       0.11273832       0.18928851       0.11063471
H       14.76674527       7.48197653      14.84559144      -0.02253218      -0.48009094       0.47311673      -0.04110605      -0.12705045      -0.26633384
C        5.17466089       1.91947182      13.29343912       1.23788408       0.27344711       0.51581880      -0.21415620       0.60487517      -0.25245854
C       11.99359704      12.55238449      11.15544033      -0.97852160       1.00879969       0.14236456      -0.71997095      -0.11649051      -0.05859516
C        1.73431351       7.87929666      13.23712043       1.20129804       1.06567298       0.03755828      -0.28665078       0.08276661      -0.04324495
C       15.55804530       6.01473475      11.26483212       1.00575279      -0.44521162       0.30306513       0.34795938      -0.48425705       0.81570578
N        4.05618212       1.40869971      13.76654856      -0.53027745       0.67885827      -0.56695819      -0.44309203       0.21307817       0.15133935
N       12.13269797      11.57739123      10.22711435       0.05690202       0.27603053      -0.17081559      -0.10048902       0.38980344      -0.26277755
N        2.75205822       7.54501530      17.32889761       0.44689694      -0.25283970      -0.28989848       0.19888863       0.43426588      -0.65403183
N       14.52391538       6.69914953      10.79064316       0.09625930       1.18926778      -0.63348845       0.03400085       0.23459281      -0.06809346
N        5.27165798       3.04250850      12.61157425      -1.60094183       0.32740371      -0.28281956      -0.25763188      -0.52453640       0.44515626
N       12.85161826      12.91014096      12.17646131       0.64998654      -1.04281108      -0.16760953      -0.36779457       0.11189938      -0.46815535
N        2.78661266       7.37970763      12.61480551       0.11809635       0.81193496       0.53177052       0.10425015       0.51186246       0.13570851
N       15.54943507       4.66983494      11.61468913      -1.85378618      -0.35960711      -0.17774219       0.31581345       0.45645822      -0.34207103
Pb      39.95695757       2.36700622      11.94911668      -0.14522309       0.37239378       0.11951837       1.66678014      -1.87106258       2.33336975
Pb      17.70171679      10.92509290      13.92396157      -0.09143287      -0.03391497      -0.22031610      -2.00178752      -1.31772484       1.32026060
Pb       7.58307994       9.09591488      11.19274076      -0.09540391       0.08537736      -0.12868505       2.28238188      -2.59867165      -0.90966485
Pb       9.52895089       5.44317275      13.44649644       0.09252394      -0.06799109       0.00777992       0.72931932      -1.13181372       2.28720263
I       38.81319662       4.52792808      14.40234328       0.07343592      -0.17812017      -0.20342888      -0.61738859      -0.08962982       0.66724881
I       38.76360097       8.61645938      11.90587560      -0.09164651       0.06925769       0.09773900       1.04780014       1.81120687       0.01973537
I        8.25317708      10.99835922      13.43718649       0.43777340       0.22461305       0.30967272       0.73531655       0.49099724       0.07673375
I        8.50603294       3.46896952      11.05666334       0.18641636       0.00373334      -0.07572480      -0.99734853      -0.10290103       1.13540124
I       16.71487245       1.37106196      11.30445531       0.10267013      -0.13646010      -0.00152510      -1.00805492      -0.78785353       0.16533124
I        0.71074566      12.75204404      13.14504086      -0.05200867       0.08143791       0.02953659       1.90105281      -0.32826899       0.57676237
I       10.53617065       7.72583136      11.20335209       0.04237463      -0.19988375       0.01858653       1.82758656      -0.54313194      -0.33261694
I        6.62703779       7.03334329      13.45736442      -0.11916645      -0.26949158       0.02287096       0.36373047      -2.12748160       0.07664120
I        2.60558887       4.45557339      10.57077076      -0.04210040      -0.10201334      -0.04668365      -1.06607727       1.09623619       1.54253035
I       14.81153135       9.74146966      13.65030277      -0.08429987       0.16458441      -0.10669365      -0.45581517      -0.90902949      -0.14024698
I        4.57536088      10.31222178      11.45375132       0.08927116       0.03968493      -0.16606608       0.04119371      -0.16053018       0.76349278
I       12.43906462       4.23940480      13.98179540       0.04421054      -0.18603455      -0.21696248      -0.87078682      -0.83511421       0.39239259
H        6.02850553       1.54095049      18.07239547       0.67019091      -0.92073242       0.05688455       0.02472536       0.12017538       0.08103570
H       11.19830710      13.10012443      16.01674776      -0.51210530      -0.29190205       0.00126569      -0.20189969      -0.20144606      -0.06198126
H        0.81613839       7.21934853      17.93528099      -0.48079800       0.13432882      -0.15790405       0.02078573       0.01924637      -0.26606875
H       16.60060885       6.49656080      16.04123592       0.37397032       0.26055502      -0.15095513      -0.25225459       0.18006312       0.04844280
H        4.07006068       0.52410050      14.25779423      -0.02783320      -0.34757717       0.27248402      -0.13193607       0.19512883      -0.08306566
H       10.76674223      11.02367721      15.02420538      -0.05483722      -0.34272879      -0.23106582       0.16044068      -0.09253826       0.10258013
H        0.87979923       9.43354266      14.18639408      -0.68470314       0.35279519       0.50147108       0.07716291       0.11416373      -0.10984400
H       16.29950779       4.52532330      17.18153827      -0.21357786      -0.18330502       0.20975078      -0.18597562      -0.03746077      -0.12905195
H        4.34678653       3.73301293      16.94655966       0.94598794      -0.78871643       0.06261803      -0.05051791       0.20606288       0.01097542
H       12.42950539      10.45545657      15.12987783       0.72957873      -0.54206230       0.05725419       0.06147689       0.20088817      -0.22843575
H        2.58270442       9.74524861      13.85624609      -0.44248020      -0.39893684      -0.25509696      -0.10413000      -0.03830519       0.07362499
H       14.52033827       4.47128373      16.92723200      -0.18365566      -0.05997501       0.01594355       0.03613718      -0.01248022      -0.07145318
H        3.00428201       1.69183448      18.19711349      -0.61856873       0.71187890      -0.35620588      -0.03902205      -0.08555810      -0.15789242
H       13.96218446      12.21281394      16.52585500       0.23158455      -0.25286465       0.01036338       0.08236170      -0.06088402      -0.06864572
H        2.46410145       9.67842154      18.68537127       0.26811359      -0.15085500       0.11923364      -0.02190721       0.06270753      -0.09905008
H       13.68276337       6.18192636      15.29173771      -0.38866756      -0.44214331       0.16824900       0.03604598      -0.11040998      -0.04611589
H        4.08128631       0.50664529      18.76115704       0.03053826      -0.95837220       0.60397964      -0.13764308      -0.04878781      -0.06577217
H       13.07686080      13.69683796      16.86286246       0.21456109       0.34024463       0.34953636       0.02305155      -0.01493355      -0.04937936
H        1.32428131       9.46749546       0.34685928       0.09362526      -0.30803603      -0.10972962       0.03956117       0.09117928      -0.05768010
H       16.38595745       4.21375495      11.99763114       0.42257491      -0.14454946       0.50444299      -0.04078506      -0.02619035       0.09868999
C        5.06391759       1.97621021      17.84863683       0.52538217       1.81339141      -1.12859609      -0.24813649       0.13111675      -0.08208013
C       11.97739613      12.30982949      15.99213766      -0.78122522      -0.40608040      -1.05985540      -0.54669583      -0.23437685      -0.25516658
C        1.67331551       7.91224798      17.92704141      -0.36428633       0.38428368       1.08611027       0.38684438      -0.15745385      -0.65690523
C       15.61175421       6.03645273      16.05661766      -1.86521682      -0.73800446       0.08554098       0.20371080       0.16642561      -0.14351739
N        5.17996347       3.13428340      17.19540279      -1.23866825      -0.21134304       0.37900766      -0.16529639      -0.19191810       0.45290910
N       11.71034138      11.10018387      15.43132473      -0.94166031       1.30851940       0.30122201      -0.15729547      -0.37729856       0.11521919
N        1.72926859       9.15575540      13.72816265       0.77485044      -0.69278682      -0.47587722       0.20825005       0.04981565       0.21241273
N       15.43508450       4.91123842      16.76191227       1.07536913       0.49398145      -0.18248889       0.58773440      -0.16965265       1.05160651
N        3.96666044       1.35978801      18.24424925      -0.06451354      -0.04090241       0.36920417       0.03768953      -0.50340614      -0.46009363
N       13.09430085      12.73899104      16.48647640       0.88191021       0.33400374       0.47421537       0.33211124       0.25651316       0.28563804
N        1.65799441       9.01035607      18.63886224      -1.08636927       0.75334067       0.20475564      -0.07980334       0.40791451       0.04604269
N       14.59489920       6.61764805      15.42382520       1.18853138       1.25796548      -0.60930248       0.21486720      -0.19152767       0.00597067
Pb      -0.31265683       3.28768170      15.25095549      -0.30885156       0.10126896       0.12622915      -1.69161466       0.32886261      -4.70036267
Pb      17.48867498      10.98348940      18.41712385      -0.02514660       0.05895610      -0.17692128      -0.20560361      -1.94207567      -2.14800886
Pb       7.41766922       8.94542261      15.90043519       0.25489262       0.17328643      -0.06349367       2.29694880       0.90507743       0.13969201
Pb       9.48694188       5.47836067      18.16828869       0.01076725      -0.07333899      -0.06500829      -1.44458286       0.65731738       0.92370959
I       38.74240612       4.55211988      19.00699471       0.24122218      -0.32652755       0.02635626      -0.39211557       1.17401439       2.43330922
I       38.79084021       8.37300247      16.78599871      -0.16968164       0.31903840       0.08949457      -0.59400504      -0.84705958       0.88928697
I        8.49805231      11.02831876      18.27570230      -0.09404642       0.04274476      -0.12657565      -1.32224900       0.98663016      -0.61121577
I        8.55088106       3.38102774      15.81750380       0.05825855       0.02711309      -0.01794669      -0.62630970      -1.23880402       0.59883607
I       16.51087148       1.56127256      15.70714901       0.26819426      -0.29871826       0.25746138      -0.72431567      -0.17535019      -1.24305075
I        0.51820055      12.85039853      17.90054061       0.00100927      -0.11321594      -0.11429751      -0.52371547      -0.18575743       0.06038278
I       10.50953122       7.48855490      15.70114699      -0.01064752       0.07794661       0.16715993       0.11550750      -0.95082549       0.14820094
I        6.76187957       6.75199482      18.06792861      -0.51358679       0.05773618       0.06211146       1.61418988      -1.04920762      -1.82406320
I        2.51674253       4.43732377      15.16176617      -0.01394551       0.20497993       0.06195981       1.63010837       0.01881620       0.37153105
I       14.68028420       9.71446523      18.01150471      -0.03437352      -0.06015544       0.14503153       0.17006294       0.41628624      -1.28440965