768
Lattice="40.227587415121015 -0.7682833808457515 1.3263590934115383 0.394859312395313 23.52400323722727 0.25591382290307674 -0.5366011814355014 -0.10491616676151522 18.726843227480614" Properties=species:S:1:pos:R:3:forces:R:3:momenta:R:3 pbc="T T T"
H        7.41364537      22.93326255       3.24406369       0.34974716      -0.15892601      -0.01497958      -0.01971291      -0.01604650      -0.09887034
H       12.12843943      11.72604827       1.79080864      -0.32205927       0.56705482       0.24051230      -0.14184337       0.05771123      -0.03945489
H        1.63080405       6.26296834       3.20035597       0.30049500      -0.51966661      -0.08273103       0.11207611       0.08475382      -0.00438160
H       17.30597527       6.05170943       1.49198654      -0.50809202      -0.63304891       0.12907442       0.13232313      -0.02498877      -0.02075050
H        7.41977052       1.64595633       6.78034755      -0.44461095      -0.12985719       0.40612287       0.06014439      -0.04299337       0.21906561
H       12.32111006       9.73199657       0.60100445       0.20203018       0.06612206       0.02063076       0.06822575      -0.26857698      -0.16623505
H        3.80106634       5.40893953       6.74679403       0.38119924       0.37904813       0.25581291       0.10211147      -0.10904976       0.16321372
H       14.75139810       6.29560602      19.17668317      -0.13208010      -0.43280885       0.36151879      -0.00198827       0.05869255      -0.07577688
H        4.51425535       1.04221102       4.25261573      -0.60756811       0.43448566      -0.24774257       0.05137759       0.03955753       0.01174137
H       14.05385491       9.58776263       1.01334661       0.05375648      -0.14913732      -0.25438719       0.32197889       0.10224106       0.17838606
H        4.74234099       6.77554804       7.36277742      -0.22650387       0.12810648       0.02733221      -0.06163333      -0.06430627       0.02343034
H       14.41242273       5.16717325       1.52204311      -1.07995097      -0.43735598      -0.20584413      -0.07404246       0.19461566      -0.22035984
H        5.97388753       2.56741623       2.88590251       0.47425911      -0.34517535       0.25736386       0.03956092       0.14554177       0.03150507
H       14.91813245      11.00280072       2.51175146       1.20576534      -0.18261636       0.26139591       0.32450502      -0.01031837      -0.00688690
H        4.48794566       6.79556856       2.23590650      -0.29136631      -0.20317526       0.15254788      -0.06958479      -0.09690356       0.17682288
H       15.79894037       3.95173090       3.16467839      -0.38975469      -0.26776847       0.24028230      -0.04644753      -0.18980074       0.00529702
H        7.62467586       1.87242577       2.55736992      -0.12888832       0.00294707      -0.29805235      -0.05429868      -0.08932977       0.02816676
H       14.13588672      12.57481700       2.91803799       0.04072689      -0.49695780      -0.01625332      -0.06745091       0.07454012       0.07866812
H        3.50864930       5.34556722       1.86594170      -0.15709365       0.77774329       0.56307124       0.03364319      -0.21031424       0.09819105
H       15.63494891       6.45993282       5.42152191      -0.02939721      -0.40833246       0.53608088      -0.02213071       0.15274667      -0.02956281
C        6.31021891       0.35590837       3.19390680       0.10283588       0.77194478       0.07859127      -0.32913367       0.03168153       0.38099905
C       13.06915083      11.18652764       1.80899645       1.50660661       0.85643688       0.72403585      -0.10007410       0.00022130      -0.30878551
C        2.65108840       6.72489275       3.16344125      -1.43150305       0.19566923       0.54732410       0.06822080      -0.04899858      -0.28995450
C       16.42895791       5.39022065       1.83352850       1.26203686       1.21565910      -0.10112332      -0.17552769      -0.24842515      -0.06780846
N        5.16573506       0.12147763       3.78369090      -0.04299233      -1.57154154       1.00875260       0.23196120      -0.17712042       0.57078822
N       13.17465836      10.13509795       1.05438141      -0.91063899      -1.38059501      -0.63562360       0.15552979       0.13664396       0.11257889
N        3.85808558       6.25937804       7.34705117      -0.56371243      -1.44578222      -0.47522288      -0.28329202       0.24816268       0.71957953
N       15.28540232       5.63118012       1.19114867       1.07996746       0.80970149      -0.13011852       0.21035641       0.15278178       0.09420220
N        6.66600771       1.70216810       2.89791163      -0.15076787       0.39141983      -0.34825363      -0.12267017       0.42672552       0.04168720
N       14.11829010      11.59844147       2.52691263      -2.00340412       0.88932271      -0.36163126      -0.21088452      -0.13354568       0.09507306
N        3.59889749       6.24648080       2.41930770       1.76612630      -1.16578205      -1.56637657       0.26761193      -0.18989838      -0.06194644
N       16.59967637       4.51630078       2.86612826       0.61961547      -0.62177117       0.19044773      -0.99273607       0.28446196      -0.14285542
Pb       0.76308673       2.11185440       1.12987921       0.06553160      -0.12813596       0.05029202       0.41878361       0.95624256       0.67945692
Pb      18.68201997       9.74785054       4.29207214       0.20278399       0.12689421      -0.04691475       1.80745125      -1.75821566      -1.65410790
Pb       8.35437610       7.55714535       1.42167559       0.31601848       0.21470185      -0.21412605      -0.44015966      -0.25835006      -0.38379209
Pb      10.76842114       4.21549569       3.64111169       0.03863586       0.12076952      -0.04055173      -0.63631275      -3.01074438      -0.45995897
I       39.96963382       3.61302311       4.71264286       0.11415790      -0.26084954       0.04274760      -0.10901458       1.60824507       1.35096211
I       39.88665528       7.41100362       2.58739947       0.09976352      -0.15744834      -0.15421427      -0.58256474       0.53420064      -1.19525558
I        9.73143413       9.51671574       3.66150356       0.07810439       0.31982373      -0.01058098      -2.60914561       1.88191804       1.14609568
I        9.85587374       2.08131957       1.39776576       0.10372147      -0.09197963      -0.14923530       2.45833161       1.34920557      -0.20346525
I       17.81511166       0.20976757       1.70298631      -0.04106515       0.06816020       0.10136250      -0.23296891       0.56521211       0.24354485
I        1.56899241      11.53710935       3.53661827      -0.01080052       0.24778959       0.02295992      -0.80426270      -0.52193259      -0.57604392
I       11.69417345       6.22011528       1.38371657      -0.29639238       0.19723368       0.00365792       1.35686129       0.50604895       0.10019478
I        7.50008052       5.59245321       3.74235236       0.03151446      -0.23834251       0.00356417       0.93875862      -0.04540489      -0.07588829
I        3.75367636       3.01074539       1.02267638      -0.00911802       0.09621070      -0.07796405      -0.61135451       0.34863158      -0.33775754
I       15.84191590       8.49930458       3.87664294      -0.27148665       0.00331903       0.06435997       0.30941612       2.26214818      -0.50385984
I        5.54927889       9.24637898       1.54939916       0.16703640      -0.26311925      -0.06057657      -0.39305227       1.65706650      -0.61032948
I       13.68716452       3.22523017       4.00341429      -0.15366287      -0.34608479      -0.03602632      -0.94808967       0.91615645      -0.35737134
H        7.42101639      23.24299844       8.31369955       0.23239743       0.03741048       0.47473645      -0.13753036       0.02061080      -0.00632081
H       11.82199485      11.69905122       6.29828848      -0.71906423       0.14826766       0.13212999      -0.16835245      -0.01517360       0.01112260
H        1.90518112       5.96348941       7.89855445      -1.43473314      -1.02574790      -0.28220259       0.34668923      -0.02239301      -0.06772416
H       17.71957730       5.55623213       6.02362205       0.96455262       0.15053030      -0.10366230       0.15248915      -0.14005967      -0.01053018
H        5.41337395      22.63332248       4.38263404      -0.03382380       0.60380654      -0.38439910       0.02329234       0.07328460       0.02884419
H       11.94445570       9.56863286       5.12237628       1.05210570       0.49809858       0.54010518      -0.00079175       0.01086921      -0.09498980
H        1.90912637       7.98822215       4.52814139       0.12309363       0.37926211       0.01148311       0.00363483      -0.11015241      -0.12363095
H       17.89273507       3.74121942       7.43537638       0.10298968      -0.17779446       0.17578154      -0.07499597       0.07421223       0.07963365
H        5.77479418       2.31227966       7.01550335       0.31714686      -0.63325270       0.35439247       0.02719281       0.02936991      -0.05898967
H       13.76532061       9.54593957       5.42718240      -1.04366551       0.51977100       0.07712539      -0.06538108      -0.03173331      -0.03215921
H        3.56735194       8.39353641       3.93913582       0.87015263       0.43178955       0.50860839       0.00861354      -0.00731763       0.26821051
H       16.05921631       3.57387950       7.69320843       0.63180891       0.44577646      -0.36674071      -0.18930761       0.12527986      -0.16897067
H        4.19693633       0.82529989       8.43396350       0.58966525      -0.11329302       0.19598285       0.10458745       0.31034307      -0.04959502
H       14.75848772      11.33035411       6.72301720       0.00257564      -0.18890711       0.05568324      -0.12517058      -0.16239958      -0.01206217
H        3.46367448       8.16756484       9.17237868      -0.38219538      -0.35209353      -0.47788615       0.02024077       0.09202968      -0.15985288
H       14.62304871       5.35527864       6.58556493      -0.44709645      -0.13520146      -0.29992844      -0.13058619       0.02102983       0.02314875
H        5.31857359      22.86008791       9.38633195       0.06686629       0.98284425      -0.52413026      -0.16887712      -0.08832113       0.16665655
H       13.75925758      12.63352164       7.29171672      -0.24706184      -0.35352541      -0.25259924      -0.09909708       0.03878022       0.11244119
H        1.78297575       7.70638308       9.31863596      -0.40073192       0.38364274       0.14971743      -0.11441590       0.16303716       0.01842728
H       17.52924059       4.28801421       3.30746251      -0.56721004       0.64676049      -0.63121338       0.04413500      -0.08479142      -0.04669354
C        6.24144481       0.51086247       8.03503900      -1.67393411      -0.18996804      -0.51420821       0.35462709      -0.59536084      -0.18586114
C       12.74692225      11.14918756       6.24389961       0.41197692       0.38478596      -0.02855445       0.07392618       0.41607378       0.91541439
C        2.75046201       6.55895508       8.01367189       2.50618975       1.57409336      -0.23526862       0.22865351       0.40394286       0.06516315
C       16.79969165       5.06666463       6.41592849      -0.80315733       0.82668399      -0.53866446      -0.36571695      -0.03016119       0.06787036
N        6.48910036       1.57640296       7.28475340       0.32917191       0.53664086      -0.38638209       0.41039624      -0.11774033      -0.51238020
N       12.82398513      10.04208404       5.55128794      -0.05459878      -1.82707202      -1.11458944      -0.79830627      -0.44698613      -0.25210748
N        2.74183365       7.79075424       3.92671954      -1.14646354       0.12766311      -0.02476380       0.30873802      -0.92330013       0.20299200
N       16.92845418       3.99846719       7.14652439      -0.70544614      -0.89701559       0.84203094       0.18189505      -0.20839020       0.08678947
N        5.05111316       0.25403055       8.60949910       0.63599463      -0.52050849      -0.01332506      -0.14387742       0.10644175      -0.12381807
N       13.79098880      11.69837928       6.82948801       0.76332846       0.81028876       0.54276311      -0.23254979      -0.13575360       0.48893825
N        2.65142370       7.64312697       8.74209169       0.13165689       0.30681571       1.03651577      -0.37550521       0.68835826       0.24273899
N       15.59985980       5.66667722       6.13172763       0.06479202       0.31332015      -0.17621407      -0.10090478      -0.25796300      -0.89635145
Pb       0.72814799       2.17470136       5.71904579       0.17511721      -0.14236868      -0.18424058       0.91861651      -2.62698746       0.88473276
Pb      18.50747023       9.71430130       9.03310715       0.36395566       0.31507588      -0.22892433      -0.60513126       0.39737386       1.32262358
Pb       8.50370647       7.75772949       5.89451965       0.13073314      -0.00630461       0.38602246      -1.63364199       0.53271040       2.44504900
Pb      10.66677008       3.93631544       8.33094146      -0.03871117       0.43234123       0.18657722       0.72048048      -3.01838064       4.02832859
I       -0.04082532       4.19401472       8.06940497      -0.10137685      -0.01728087       0.02137795      -1.90704324      -0.23275088      -0.28080661
I       39.95847156       7.46883329       7.30095230      -0.13787696      -0.13147259      -0.03503675      -0.31529031      -0.60743807      -1.63524541
I        9.60246181       9.47881730       8.62714492      -0.05102722       0.06675707      -0.12468528      -0.25871348       0.67178409       1.65179065
I        9.75091834       2.23879776       6.03395814      -0.04411543      -0.43518951      -0.16720758      -0.44865515      -1.04741005      -0.85221341
I       17.83883612       0.25100047       6.26134654      -0.15152178      -0.00105669       0.31706950      -0.54467372       0.34954774      -1.27088288
I        1.55192201      11.81209287       8.13330473      -0.05940156      -0.01681826       0.17207042      -0.57654841      -1.04260203       1.59173726
I       11.59738651       6.14865787       6.04345766      -0.02668970       0.12619692       0.10867922       3.41378776       1.22740556      -1.38338104
I        7.65319464       5.68727805       8.30077663      -0.21303904      -0.33629453      -0.07483040       0.23081252      -0.22021191       1.79341268
I        3.84686593       3.10891034       5.31290396      -0.25454681       0.07124716       0.09207628      -1.29098289       0.66455555       0.68382447
I       15.73250142       8.75644696       8.61805467      -0.26456254      -0.26624446      -0.01821667      -0.13037701      -0.42911705      -0.62241443
I        5.64591925       8.94001774       5.86341451       0.03085947       0.08897482       0.12862094      -0.96525300      -0.92536166      -1.38489911
I       13.60549740       3.05618516       8.63698402       0.14539441      -0.28574064      -0.08298787      -0.73404500       0.02620139      -0.32269180
H        7.14534478      22.88080446      12.60748531       0.34974716      -0.15892601      -0.01497958      -0.01971291      -0.01604650      -0.09887034
H       11.86013884      11.67359019      11.15423025      -0.32205927       0.56705482       0.24051230      -0.14184337       0.05771123      -0.03945489
H        1.36250346       6.21051026      12.56377758       0.30049500      -0.51966661      -0.08273103       0.11207611       0.08475382      -0.00438160
H       17.03767468       5.99925135      10.85540815      -0.50809202      -0.63304891       0.12907442       0.13232313      -0.02498877      -0.02075050
H        7.15146993       1.59349825      16.14376916      -0.44461095      -0.12985719       0.40612287       0.06014439      -0.04299337       0.21906561
H       12.05280947       9.67953849       9.96442606       0.20203018       0.06612206       0.02063076       0.06822575      -0.26857698      -0.16623505
H        3.53276575       5.35648145      16.11021564       0.38119924       0.37904813       0.25581291       0.10211147      -0.10904976       0.16321372
H       15.01969869       6.34806411       9.81326155      -0.13208010      -0.43280885       0.36151879      -0.00198827       0.05869255      -0.07577688
H        4.24595476       0.98975294      13.61603734      -0.60756811       0.43448566      -0.24774257       0.05137759       0.03955753       0.01174137
H       13.78555432       9.53530455      10.37676822       0.05375648      -0.14913732      -0.25438719       0.32197889       0.10224106       0.17838606
H        4.47404040       6.72308996      16.72619903      -0.22650387       0.12810648       0.02733221      -0.06163333      -0.06430627       0.02343034
H       14.14412214       5.11471517      10.88546472      -1.07995097      -0.43735598      -0.20584413      -0.07404246       0.19461566      -0.22035984
H        5.70558694       2.51495815      12.24932412       0.47425911      -0.34517535       0.25736386       0.03956092       0.14554177       0.03150507
H       14.64983186      10.95034264      11.87517307       1.20576534      -0.18261636       0.26139591       0.32450502      -0.01031837      -0.00688690
H        4.21964507       6.74311048      11.59932811      -0.29136631      -0.20317526       0.15254788      -0.06958479      -0.09690356       0.17682288
H       15.53063978       3.89927282      12.52810000      -0.38975469      -0.26776847       0.24028230      -0.04644753      -0.18980074       0.00529702
H        7.35637527       1.81996769      11.92079153      -0.12888832       0.00294707      -0.29805235      -0.05429868      -0.08932977       0.02816676
H       13.86758613      12.52235892      12.28145960       0.04072689      -0.49695780      -0.01625332      -0.06745091       0.07454012       0.07866812
H        3.24034871       5.29310914      11.22936331      -0.15709365       0.77774329       0.56307124       0.03364319      -0.21031424       0.09819105
H       15.36664832       6.40747474      14.78494352      -0.02939721      -0.40833246       0.53608088      -0.02213071       0.15274667      -0.02956281
C        6.04191832       0.30345029      12.55732841       0.10283588       0.77194478       0.07859127      -0.32913367       0.03168153       0.38099905
C       12.80085024      11.13406956      11.17241806       1.50660661       0.85643688       0.72403585      -0.10007410       0.00022130      -0.30878551
C        2.38278781       6.67243467      12.52686286      -1.43150305       0.19566923       0.54732410       0.06822080      -0.04899858      -0.28995450
C       16.16065732       5.33776257      11.19695011       1.26203686       1.21565910      -0.10112332      -0.17552769      -0.24842515      -0.06780846
N        4.89743447       0.06901955      13.14711251      -0.04299233      -1.57154154       1.00875260       0.23196120      -0.17712042       0.57078822
N       12.90635777      10.08263987      10.41780302      -0.91063899      -1.38059501      -0.63562360       0.15552979       0.13664396       0.11257889
N        3.58978499       6.20691996      16.71047278      -0.56371243      -1.44578222      -0.47522288      -0.28329202       0.24816268       0.71957953
N       15.01710173       5.57872204      10.55457028       1.07996746       0.80970149      -0.13011852       0.21035641       0.15278178       0.09420220
N        6.39770712       1.64971002      12.26133324      -0.15076787       0.39141983      -0.34825363      -0.12267017       0.42672552       0.04168720
N       13.84998951      11.54598339      11.89033424      -2.00340412       0.88932271      -0.36163126      -0.21088452      -0.13354568       0.09507306
N        3.33059690       6.19402272      11.78272931       1.76612630      -1.16578205      -1.56637657       0.26761193      -0.18989838      -0.06194644
N       16.33137578       4.46384270      12.22954987       0.61961547      -0.62177117       0.19044773      -0.99273607       0.28446196      -0.14285542
Pb       0.49478614       2.05939632      10.49330082       0.06553160      -0.12813596       0.05029202       0.41878361       0.95624256       0.67945692
Pb      18.41371938       9.69539246      13.65549375       0.20278399       0.12689421      -0.04691475       1.80745125      -1.75821566      -1.65410790
Pb       8.08607551       7.50468727      10.78509720       0.31601848       0.21470185      -0.21412605      -0.44015966      -0.25835006      -0.38379209
Pb      10.50012055       4.16303761      13.00453330       0.03863586       0.12076952      -0.04055173      -0.63631275      -3.01074438      -0.45995897
I       39.70133322       3.56056503      14.07606448       0.11415790      -0.26084954       0.04274760      -0.10901458       1.60824507       1.35096211
I       39.61835468       7.35854554      11.95082109       0.09976352      -0.15744834      -0.15421427      -0.58256474       0.53420064      -1.19525558
I        9.46313354       9.46425766      13.02492517       0.07810439       0.31982373      -0.01058098      -2.60914561       1.88191804       1.14609568
I        9.58757315       2.02886149      10.76118737       0.10372147      -0.09197963      -0.14923530       2.45833161       1.34920557      -0.20346525
I       17.54681107       0.15730949      11.06640792      -0.04106515       0.06816020       0.10136250      -0.23296891       0.56521211       0.24354485
I        1.30069182      11.48465127      12.90003988      -0.01080052       0.24778959       0.02295992      -0.80426270      -0.52193259      -0.57604392
I       11.42587286       6.16765720      10.74713818      -0.29639238       0.19723368       0.00365792       1.35686129       0.50604895       0.10019478
I        7.23177993       5.53999513      13.10577397       0.03151446      -0.23834251       0.00356417       0.93875862      -0.04540489      -0.07588829
I        3.48537577       2.95828731      10.38609799      -0.00911802       0.09621070      -0.07796405      -0.61135451       0.34863158      -0.33775754
I       15.57361531       8.44684650      13.24006455      -0.27148665       0.00331903       0.06435997       0.30941612       2.26214818      -0.50385984
I        5.28097830       9.19392090      10.91282077       0.16703640      -0.26311925      -0.06057657      -0.39305227       1.65706650      -0.61032948
I       13.41886393       3.17277209      13.36683590      -0.15366287      -0.34608479      -0.03602632      -0.94808967       0.91615645      -0.35737134
H        7.15271580      23.19054035      17.67712117       0.23239743       0.03741048       0.47473645      -0.13753036       0.02061080      -0.00632081
H       11.55369426      11.64659314      15.66171009      -0.71906423       0.14826766       0.13212999      -0.16835245      -0.01517360       0.01112260
H        1.63688053       5.91103133      17.26197606      -1.43473314      -1.02574790      -0.28220259       0.34668923      -0.02239301      -0.06772416
H       17.45127671       5.50377405      15.38704366       0.96455262       0.15053030      -0.10366230       0.15248915      -0.14005967      -0.01053018
H        5.14507336      22.58086439      13.74605566      -0.03382380       0.60380654      -0.38439910       0.02329234       0.07328460       0.02884419
H       11.67615511       9.51617478      14.48579789       1.05210570       0.49809858       0.54010518      -0.00079175       0.01086921      -0.09498980
H        1.64082578       7.93576407      13.89156300       0.12309363       0.37926211       0.01148311       0.00363483      -0.11015241      -0.12363095
H       17.62443448       3.68876134      16.79879799       0.10298968      -0.17779446       0.17578154      -0.07499597       0.07421223       0.07963365
H        5.50649359       2.25982158      16.37892496       0.31714686      -0.63325270       0.35439247       0.02719281       0.02936991      -0.05898967
H       13.49702002       9.49348149      14.79060401      -1.04366551       0.51977100       0.07712539      -0.06538108      -0.03173331      -0.03215921
H        3.29905135       8.34107833      13.30255743       0.87015263       0.43178955       0.50860839       0.00861354      -0.00731763       0.26821051
H       15.79091572       3.52142142      17.05663004       0.63180891       0.44577646      -0.36674071      -0.18930761       0.12527986      -0.16897067
H        3.92863574       0.77284181      17.79738511       0.58966525      -0.11329302       0.19598285       0.10458745       0.31034307      -0.04959502
H       14.49018713      11.27789603      16.08643881       0.00257564      -0.18890711       0.05568324      -0.12517058      -0.16239958      -0.01206217
H        3.19537389       8.11510676      18.53580029      -0.38219538      -0.35209353      -0.47788615       0.02024077       0.09202968      -0.15985288
H       14.35474812       5.30282056      15.94898654      -0.44709645      -0.13520146      -0.29992844      -0.13058619       0.02102983       0.02314875
H        5.05027300      22.80762982      18.74975357       0.06686629       0.98284425      -0.52413026      -0.16887712      -0.08832113       0.16665655
H       13.49095699      12.58106356      16.65513833      -0.24706184      -0.35352541      -0.25259924      -0.09909708       0.03878022       0.11244119
H        1.51467516       7.65392500      18.68205757      -0.40073192       0.38364274       0.14971743      -0.11441590       0.16303716       0.01842728
H       17.26094000       4.23555613      12.67088412      -0.56721004       0.64676049      -0.63121338       0.04413500      -0.08479142      -0.04669354
C        5.97314422       0.45840439      17.39846061      -1.67393411      -0.18996804      -0.51420821       0.35462709      -0.59536084      -0.18586114
C       12.47862166      11.09672948      15.60732122       0.41197692       0.38478596      -0.02855445       0.07392618       0.41607378       0.91541439
C        2.48216142       6.50649700      17.37709350       2.50618975       1.57409336      -0.23526862       0.22865351       0.40394286       0.06516315
C       16.53139106       5.01420655      15.77935010      -0.80315733       0.82668399      -0.53866446      -0.36571695      -0.03016119       0.06787036
N        6.22079977       1.52394488      16.64817501       0.32917191       0.53664086      -0.38638209       0.41039624      -0.11774033      -0.51238020
N       12.55568454       9.98962596      14.91470955      -0.05459878      -1.82707202      -1.11458944      -0.79830627      -0.44698613      -0.25210748
N        2.47353306       7.73829616      13.29014115      -1.14646354       0.12766311      -0.02476380       0.30873802      -0.92330013       0.20299200
N       16.66015359       3.94600911      16.50994600      -0.70544614      -0.89701559       0.84203094       0.18189505      -0.20839020       0.08678947
N        4.78281257       0.20157247      17.97292071       0.63599463      -0.52050849      -0.01332506      -0.14387742       0.10644175      -0.12381807
N       13.52268821      11.64592120      16.19290962       0.76332846       0.81028876       0.54276311      -0.23254979      -0.13575360       0.48893825
N        2.38312311       7.59066889      18.10551330       0.13165689       0.30681571       1.03651577      -0.37550521       0.68835826       0.24273899
N       15.33155921       5.61421914      15.49514924       0.06479202       0.31332015      -0.17621407      -0.10090478      -0.25796300      -0.89635145
Pb       0.45984740       2.12224328      15.08246740       0.17511721      -0.14236868      -0.18424058       0.91861651      -2.62698746       0.88473276
Pb      18.23916964       9.66184322      18.39652876       0.36395566       0.31507588      -0.22892433      -0.60513126       0.39737386       1.32262358
Pb       8.23540588       7.70527141      15.25794126       0.13073314      -0.00630461       0.38602246      -1.63364199       0.53271040       2.44504900
Pb      10.39846949       3.88385736      17.69436307      -0.03871117       0.43234123       0.18657722       0.72048048      -3.01838064       4.02832859
I       -0.30912591       4.14155664      17.43282658      -0.10137685      -0.01728087       0.02137795      -1.90704324      -0.23275088      -0.28080661
I       39.69017096       7.41637521      16.66437392      -0.13787696      -0.13147259      -0.03503675      -0.31529031      -0.60743807      -1.63524541
I        9.33416122       9.42635922      17.99056653      -0.05102722       0.06675707      -0.12468528      -0.25871348       0.67178409       1.65179065
I        9.48261775       2.18633968      15.39737975      -0.04411543      -0.43518951      -0.16720758      -0.44865515      -1.04741005      -0.85221341
I       17.57053553       0.19854239      15.62476815      -0.15152178      -0.00105669       0.31706950      -0.54467372       0.34954774      -1.27088288
I        1.28362142      11.75963479      17.49672634      -0.05940156      -0.01681826       0.17207042      -0.57654841      -1.04260203       1.59173726
I       11.32908592       6.09619979      15.40687927      -0.02668970       0.12619692       0.10867922       3.41378776       1.22740556      -1.38338104
I        7.38489405       5.63481997      17.66419824      -0.21303904      -0.33629453      -0.07483040       0.23081252      -0.22021191       1.79341268
I        3.57856534       3.05645226      14.67632557      -0.25454681       0.07124716       0.09207628      -1.29098289       0.66455555       0.68382447
I       15.46420083       8.70398888      17.98147628      -0.26456254      -0.26624446      -0.01821667      -0.13037701      -0.42911705      -0.62241443