768
Lattice="32.0609120611585 -0.5112882221814271 -0.5475189371990378 0.2896562838185469 31.11650681404145 -0.5358671673453327 0.3216333527679892 0.2519783857508381 17.761452272036312" Properties=species:S:1:pos:R:3:forces:R:3:momenta:R:3 pbc="T T T"
H        1.83702721       2.96696480       3.14707231      -0.06321532       0.45106621      -0.22284847      -0.01517925       0.01083847      -0.24333886
H        1.20693862       3.22426230       5.42509731       0.05854595       0.11515848       0.06731899      -0.11244442      -0.08224958       0.07536065
H        1.24977127       1.51491507       5.78812063       0.25752063      -0.32770311       0.17018750       0.12650318       0.03398641       0.15612427
H        2.15444098       0.04041200       3.78032064      -0.09839622       0.32780114       0.06592635      -0.01790991       0.14465866      -0.10546896
H        2.37990618       0.92062725       2.23686630      -0.17443497       0.16030357       0.79915574      -0.21430125       0.10709993       0.02191706
H        5.48413632       3.29101002      16.22334080      -0.52197358      -0.22005620      -0.51642650      -0.16993406      -0.11019659       0.09041197
H        5.70930107       2.19662672       0.54335005       0.04033347      -0.03627825      -0.02270100       0.04340427      -0.23870873      -0.04361321
H        5.73412047       3.78427475       1.37320851      -0.26556447      -0.85442370      -0.98103375       0.11215010       0.10950633       0.07698158
H        5.30895753       6.00633311      17.52569229      -0.31616973       0.16882045       0.20211315       0.12654565       0.10025934      -0.05025217
H        4.87640031       5.63421007      15.82549865       0.21818744      -0.50979958       0.43430617       0.23386418       0.06458381       0.03192023
C        1.78770223       2.10724388       3.81822604       0.37979131      -1.11117081       0.08290920      -0.03590386      -0.03717877      -0.07938844
C        5.42366172       3.99658395      17.04778681       0.38251094       0.22806147       0.05091065       0.28724575       0.99130131       0.53068970
N        1.43868568       2.27405891       5.08815700      -0.46552977       0.53460461       0.21358942       0.03096924      -0.33870996       0.12317758
N        2.12355382       0.94392174       3.27634067       0.15808065      -0.67396422      -1.02952502       0.14284003       0.20584694       0.01974352
N        5.50147705       3.21136266       0.46252586       0.14006926       1.32984591       0.91787278      -0.44117101       0.34420756       0.38615726
N        5.07578081       5.27058664      16.79800718       0.33676459      -0.19818360       0.00092366      -0.52610218      -0.13697267       0.01692534
Pb       4.67246539      29.93896679      16.73220187      -0.31920881       0.25306553       0.35848688       0.80306887       0.87936678      -1.02835092
Pb      32.53014119      29.49253623      16.42291199       0.39672560       0.21970421       0.37701045      -3.00366325      -0.82610836       0.14957299
I        6.17026762      30.97067640       1.54008979       0.16707276      -0.11956895      -0.29932869       0.50232540       0.67204566      -1.76233596
I        1.44895751       5.10649824       1.55346371       0.16173907       0.11912615       0.05115562       0.77219300       0.89936270       0.60694093
I        6.37622363       0.26966251       6.53960153      -0.01760941       0.13473265      -0.01255000      -1.81131798       0.13698625      -0.22749857
I        1.38121565       5.52529487       6.02900787       0.01564685       0.13733500       0.38176175      -0.46728690      -0.06673129      -0.07079693
I        5.46016783       4.08074033       4.22629329      -0.08138399       0.14485375      -0.06068965       0.45686335       2.21383588      -0.41381840
I        2.24192230       1.40567999      17.49737122       0.19546588       0.05209496       0.00523291      -0.98828144      -1.13178085       1.80993879
H        1.42002515      10.27694917       0.37499557       0.37264349       0.28259939      -0.25641440       0.01826739      -0.17910972      -0.04422075
H        1.06544341       8.06355203       0.69087056      -0.00682481      -0.03800513      -0.22302567       0.07926803      -0.10620278      -0.04214392
H        1.58013437       7.80501658      16.75463447       0.09229003       1.12608152       0.64795521       0.02271567      -0.23916973       0.02434707
H        2.23976956       9.77827506      15.20593393      -0.10272018      -0.25206632      -0.78147995       0.19269973      -0.02074273       0.11106574
H        2.28585777      11.38186650      15.87033943       0.16403860       0.88663556      -0.13379764      -0.07356345      -0.03853241       0.04085037
H        5.67457119      10.73543017       4.82475887       0.07827898       0.80005935      -0.55823264       0.00548700      -0.16500588      -0.11676851
H        5.83463988      12.91813128       5.42422027       0.38136750       0.44537241      -0.57150637       0.10868288      -0.13471625      -0.05064079
H        5.99921830      13.50056182       3.72789742      -0.12598410       1.40129067      -0.63042079       0.03345943       0.09625440       0.15196242
H        5.37586495      11.63084874       1.94920633       0.13498471       0.76549821      -0.34904967       0.07018049      -0.15256942      -0.13615722
H       14.08333504      12.62159611       5.46375589      -0.04353035      -0.49102859      -0.17243401       0.11727462      -0.00691537      -0.15283713
C        1.87169119       9.86721492      17.22442473      -0.80909211       0.36926007      -0.55206134       0.12477562      -0.19704203       0.53569682
C        5.69449167      11.53367935       4.02957495      -0.74711654      -1.39273351      -0.10822981      -0.64965472       0.22151411      -0.19660403
N        1.54009276       8.59788766      17.46614898       0.20381264      -1.43147603      -0.31567272       0.36158523      -0.16265680       0.04815145
N        2.17701215      10.39133187      16.01330178       0.04449013      -1.14389478       1.64382894       0.48976547       0.00663708      -0.60889246
N        5.86720265      12.77596826       4.39337254       0.11092302      -1.31177357       1.57054949       0.25373116       0.63063469       0.99033298
N        5.43350274      11.09286745       2.81030699      -0.03147702      -2.24810187       0.17526632      -0.40394576      -0.26535934       0.35310725
Pb       3.38166717       6.61315814       3.77704224       0.00071147      -0.14806306      -0.20583313      -1.65285096      -1.28817808      -0.46529769
Pb      31.46992595       5.92768785       3.17254705      -0.25674577       0.11960050      -0.14039849       1.59525638      -0.68634252      -0.81274371
I        5.31545590       8.27833183       5.85038508      -0.10296676      -0.11167542       0.09606467       1.22250161      -1.47867525      -1.94564253
I        2.19509190      13.57688040       5.89239117      -0.05996131       0.08515268      -0.23908652       0.55496310      -0.31283293      -1.18945187
I        5.40063100       7.80933788       1.51807355      -0.01718708      -0.11170266      -0.16227792      -1.12090583       0.59550215       0.16318825
I        2.26018635      12.69030898       1.48682655      -0.05479279       0.29040646      -0.25190231       0.97958327      -0.81960422      -1.24920491
I        6.55826732      11.91635716      16.97012767       0.09119858       0.11636536      -0.09781912       0.50790627       0.67279429       1.02730185
I        1.30370760       9.02636747       3.67188537       0.08706158       0.23094191      -0.22344977       0.46450574       0.72653027       0.00482604
H       10.09972582       2.34220917       3.25682422       0.14451541      -0.15713163       0.21646463       0.07413293      -0.08501598       0.05529720
H        9.65021689       3.22173188       5.43106523       0.06079793      -0.19414325      -0.14737696      -0.03473442      -0.09090455      -0.08220966
H        9.79130687       1.60379624       6.17942220      -0.29775547       0.84590872      -0.61416291       0.03899921       0.01888216       0.02269074
H       10.45880201      30.76205160       4.09612350      -0.04137768      -0.06570890      -0.09191372       0.02192131      -0.15545899       0.03273351
H       10.33446772       0.00724774       2.91405851       0.07347772       0.24987630      -0.51656865       0.00105544      -0.07689329       0.12948480
H       13.08665642       4.52055099       0.57248433       0.17437376      -0.09202997       0.25776713      -0.03376620       0.25599308       0.06485713
H       14.26600653       5.46166667      16.04442928      -0.09161866      -0.63719064       0.33778275      -0.02676479      -0.02705865       0.24790265
H       14.52291230       3.83306008      15.50507181       0.03569466      -0.02268073       0.23270458      -0.07732201       0.07292028       0.26135772
H       14.01017413       1.98528910      17.33945621       0.08136906       0.64784988       0.64778587       0.05195785      -0.02836558      -0.18200816
H       13.15482323       2.24638553       1.27462966      -0.01157738       0.01632656       0.45542953       0.13228733      -0.08007750      -0.05231608
C       10.07299377       1.65378682       4.14096707      -0.96478590       0.24865766      -2.14427090      -0.11271439      -0.09606594      -0.07619947
C       13.47137235       3.74225273      -0.15383225       0.05370766       1.23880845      -0.76096787       0.64743423       0.39066579      -0.29744408
N        9.71030634       2.18969656       5.30634043       0.70290375      -0.94714591       1.98264201      -0.20932828      -0.50373419       0.37603764
N       10.18530657       0.35642453       3.86659683       0.32426402       0.00445098       1.26308515       0.16279818       0.61041388      -0.30692158
N       14.26839161       4.44723072      16.31159837      -0.20810271       0.43765194      -0.33476092       0.39753706       0.45091882      -0.13231539
N       13.45824402       2.50301524       0.27837946      -0.02140138      -1.33718769      -0.92498557       0.26270120      -0.18541668       0.39907844
Pb      12.57723278      30.15044463      16.96058870       0.31864355      -0.11692284      -0.08368728       0.08307552      -1.12674281       1.30061283
Pb       8.68720913      30.13265947      17.09501141      -0.16091611      -0.08809896      -0.21147015       0.46221321      -4.64096441      -0.26403459
I       14.35044510      30.69549847       1.57035301       0.09613296      -0.21158401      -0.12500273       1.28673130       1.26920046       0.35664402
I        9.12501270       4.84621198       1.78019371      -0.09973953       0.23889776       0.04747912       1.06141177      -0.25215944       1.32707935
I       14.21750552       0.32948712       6.38859725      -0.04758371      -0.04228617       0.08222346       0.22564266      -0.02433269      -1.45692380
I        9.51125163       5.62826003       6.06564578      -0.02427470       0.12705921      -0.04057118       1.26787898      -1.60109935      -0.59652703
I       13.39530741       3.79146279       3.72406509      -0.30054817      -0.02541174      -0.02563929       0.39660164       0.00135445       0.20784423
I       10.15562723       1.30723474       0.14032434      -0.17120870      -0.08709401      -0.06317304       2.04519732       0.82425164      -0.36591191
H        9.91600742      10.07704814       0.40489074      -0.16543468      -0.69783375      -0.52658069      -0.25705863      -0.03457885      -0.04780677
H       10.46196351      11.13777997      16.02337587      -0.11277975       0.57279679      -0.59645321      -0.01524008      -0.32287826       0.13902586
H       10.05911146       9.58585184      15.25512530      -0.12712159      -0.23095090      -0.75555131      -0.26211923       0.09714990      -0.13897702
H        9.64418841       7.76107047      16.57552827      -0.02815718      -0.84359754       0.20100893       0.04520932       0.05964093       0.04768527
H        9.47055695       7.64465601       0.65644745      -0.16765331       0.02621142       0.38976984       0.01097518      -0.15576186       0.15313986
H       14.22788645      10.30453649       4.59399628      -0.10049874      -0.07734635      -0.05049287      -0.02538678      -0.19592136      -0.12444328
H       13.83968957       9.88286201       2.35066584      -0.04305274       0.08506715      -0.15643324       0.09759588      -0.16232816      -0.20869530
H       13.55395235      11.62191308       1.93828205       0.16174973       0.87565431      -1.11779253      -0.09902485      -0.08797962      -0.00118648
H       13.73508296      13.27048676       3.79206823       0.18919000      -0.72168633       0.99938896       0.10856789       0.20351417      -0.09090288
H        5.34237518      10.03433917       2.64092362       0.29760564       1.65266900       0.49725918      -0.00728191      -0.22203074       0.09761924
C       10.04376062       9.63733218      17.27907096       0.32963600       0.68218827       1.86926095       0.48294355      -0.33198226       0.80706595
C       14.00087214      11.18323048       3.91370697       0.41804825       0.42509185       0.11006183      -0.33193676      -0.09510305      -0.34152481
N       10.11359304      10.15580342      16.08692000       0.39171899       0.37103831      -0.34214148      -0.18688825      -0.15653163       0.41329229
N        9.47713182       8.09455691      -0.29256121      -0.16656037      -0.08482769      -0.25863631       0.02979662       0.53847289       0.19922881
N       13.80052285      10.89082952       2.62300978      -0.00304262      -0.38897239       2.56209068      -0.79811934      -0.01243871      -0.66350451
N       14.00920383      12.42366627       4.45513488      -0.55821448       0.38018318      -2.39905251      -0.81066460       0.02305829      -0.09478386
Pb      11.28767919       6.49309409       3.35206986       0.35868848      -0.08503081       0.41410565      -0.55399616       0.85061115      -0.78860109
Pb       7.33382157       6.80749310       3.90172753       0.07858630      -0.44700584      -0.02128537      -1.26940615      -1.10075199       2.14946217
I       13.62331846       7.62469835       5.56401524      -0.16489440       0.02294371       0.07080907       0.11383545      -1.06665760      -0.58690379
I       10.55943112      13.24423307       5.98373113      -0.33907300       0.24527072       0.17689219       2.27954154       0.11719991      -1.39302177
I       13.38531645       7.55147897       1.15300084       0.03290629      -0.08600469      -0.00209910       0.54820148      -1.27922063      -0.07533587
I       10.25692659      12.68708761       1.40120401       0.06144171      -0.00119458       0.28372924       0.21076816       0.16535427      -0.56474333
I       14.37780759      11.86043670      16.73346804      -0.18633952      -0.22173815       0.09520040       2.12612832      -2.43667715      -1.78890055
I        9.35445587       9.17182176       3.49320517       0.22989059      -0.04796557      -0.07620183      -2.10507307       0.39798508       1.34741931
H        1.99784389       3.09295399      12.02779845      -0.06321532       0.45106621      -0.22284847      -0.01517925       0.01083847      -0.24333886
H        1.36775530       3.35025149      14.30582345       0.05854595       0.11515848       0.06731899      -0.11244442      -0.08224958       0.07536065
H        1.41058795       1.64090426      14.66884677       0.25752063      -0.32770311       0.17018750       0.12650318       0.03398641       0.15612427
H        2.31525766       0.16640119      12.66104678      -0.09839622       0.32780114       0.06592635      -0.01790991       0.14465866      -0.10546896
H        2.54072286       1.04661644      11.11759244      -0.17443497       0.16030357       0.79915574      -0.21430125       0.10709993       0.02191706
H        5.32331965       3.16502082       7.34261467      -0.52197358      -0.22005620      -0.51642650      -0.16993406      -0.11019659       0.09041197
H        5.87011775       2.32261591       9.42407619       0.04033347      -0.03627825      -0.02270100       0.04340427      -0.23870873      -0.04361321
H        5.89493715       3.91026394      10.25393465      -0.26556447      -0.85442370      -0.98103375       0.11215010       0.10950633       0.07698158
H        5.14814086       5.88034391       8.64496616      -0.31616973       0.16882045       0.20211315       0.12654565       0.10025934      -0.05025217
H        4.71558364       5.50822087       6.94477252       0.21818744      -0.50979958       0.43430617       0.23386418       0.06458381       0.03192023
C        1.94851891       2.23323307      12.69895218       0.37979131      -1.11117081       0.08290920      -0.03590386      -0.03717877      -0.07938844
C        5.26284505       3.87059475       8.16706068       0.38251094       0.22806147       0.05091065       0.28724575       0.99130131       0.53068970
N        1.59950236       2.40004810      13.96888314      -0.46552977       0.53460461       0.21358942       0.03096924      -0.33870996       0.12317758
N        2.28437050       1.06991093      12.15706681       0.15808065      -0.67396422      -1.02952502       0.14284003       0.20584694       0.01974352
N        5.66229373       3.33735185       9.34325200       0.14006926       1.32984591       0.91787278      -0.44117101       0.34420756       0.38615726
N        4.91496414       5.14459744       7.91728105       0.33676459      -0.19818360       0.00092366      -0.52610218      -0.13697267       0.01692534
Pb       4.51164871      29.81297760       7.85147574      -0.31920881       0.25306553       0.35848688       0.80306887       0.87936678      -1.02835092
Pb      32.36932451      29.36654703       7.54218585       0.39672560       0.21970421       0.37701045      -3.00366325      -0.82610836       0.14957299
I        6.33108430      31.09666560      10.42081593       0.16707276      -0.11956895      -0.29932869       0.50232540       0.67204566      -1.76233596
I        1.60977419       5.23248743      10.43418985       0.16173907       0.11912615       0.05115562       0.77219300       0.89936270       0.60694093
I        6.53704031       0.39565170      15.42032767      -0.01760941       0.13473265      -0.01255000      -1.81131798       0.13698625      -0.22749857
I        1.54203233       5.65128406      14.90973401       0.01564685       0.13733500       0.38176175      -0.46728690      -0.06673129      -0.07079693
I        5.62098451       4.20672952      13.10701943      -0.08138399       0.14485375      -0.06068965       0.45686335       2.21383588      -0.41381840
I        2.08110563       1.27969079       8.61664509       0.19546588       0.05209496       0.00523291      -0.98828144      -1.13178085       1.80993879
H        1.58084183      10.40293836       9.25572171       0.37264349       0.28259939      -0.25641440       0.01826739      -0.17910972      -0.04422075
H        1.22626009       8.18954122       9.57159670      -0.00682481      -0.03800513      -0.22302567       0.07926803      -0.10620278      -0.04214392
H        1.41931770       7.67902738       7.87390834       0.09229003       1.12608152       0.64795521       0.02271567      -0.23916973       0.02434707
H        2.07895289       9.65228586       6.32520780      -0.10272018      -0.25206632      -0.78147995       0.19269973      -0.02074273       0.11106574
H        2.12504110      11.25587730       6.98961330       0.16403860       0.88663556      -0.13379764      -0.07356345      -0.03853241       0.04085037
H        5.83538787      10.86141936      13.70548501       0.07827898       0.80005935      -0.55823264       0.00548700      -0.16500588      -0.11676851
H        5.99545656      13.04412047      14.30494641       0.38136750       0.44537241      -0.57150637       0.10868288      -0.13471625      -0.05064079
H        6.16003498      13.62655101      12.60862356      -0.12598410       1.40129067      -0.63042079       0.03345943       0.09625440       0.15196242
H        5.53668163      11.75683793      10.82993247       0.13498471       0.76549821      -0.34904967       0.07018049      -0.15256942      -0.13615722
H       14.24415172      12.74758530      14.34448203      -0.04353035      -0.49102859      -0.17243401       0.11727462      -0.00691537      -0.15283713
C        1.71087452       9.74122572       8.34369860      -0.80909211       0.36926007      -0.55206134       0.12477562      -0.19704203       0.53569682
C        5.85530835      11.65966854      12.91030109      -0.74711654      -1.39273351      -0.10822981      -0.64965472       0.22151411      -0.19660403
N        1.37927609       8.47189846       8.58542285       0.20381264      -1.43147603      -0.31567272       0.36158523      -0.16265680       0.04815145
N        2.01619548      10.26534267       7.13257565       0.04449013      -1.14389478       1.64382894       0.48976547       0.00663708      -0.60889246
N        6.02801933      12.90195745      13.27409868       0.11092302      -1.31177357       1.57054949       0.25373116       0.63063469       0.99033298
N        5.59431942      11.21885664      11.69103313      -0.03147702      -2.24810187       0.17526632      -0.40394576      -0.26535934       0.35310725
Pb       3.54248385       6.73914733      12.65776838       0.00071147      -0.14806306      -0.20583313      -1.65285096      -1.28817808      -0.46529769
Pb      31.63074263       6.05367704      12.05327319      -0.25674577       0.11960050      -0.14039849       1.59525638      -0.68634252      -0.81274371
I        5.47627258       8.40432102      14.73111122      -0.10296676      -0.11167542       0.09606467       1.22250161      -1.47867525      -1.94564253
I        2.35590858      13.70286959      14.77311731      -0.05996131       0.08515268      -0.23908652       0.55496310      -0.31283293      -1.18945187
I        5.56144768       7.93532707      10.39879969      -0.01718708      -0.11170266      -0.16227792      -1.12090583       0.59550215       0.16318825
I        2.42100303      12.81629817      10.36755269      -0.05479279       0.29040646      -0.25190231       0.97958327      -0.81960422      -1.24920491
I        6.39745065      11.79036796       8.08940154       0.09119858       0.11636536      -0.09781912       0.50790627       0.67279429       1.02730185
I        1.46452428       9.15235666      12.55261151       0.08706158       0.23094191      -0.22344977       0.46450574       0.72653027       0.00482604
H       10.26054250       2.46819836      12.13755036       0.14451541      -0.15713163       0.21646463       0.07413293      -0.08501598       0.05529720
H        9.81103357       3.34772107      14.31179137       0.06079793      -0.19414325      -0.14737696      -0.03473442      -0.09090455      -0.08220966
H        9.95212355       1.72978543      15.06014834      -0.29775547       0.84590872      -0.61416291       0.03899921       0.01888216       0.02269074
H       10.61961869      30.88804080      12.97684964      -0.04137768      -0.06570890      -0.09191372       0.02192131      -0.15545899       0.03273351
H       10.49528440       0.13323693      11.79478465       0.07347772       0.24987630      -0.51656865       0.00105544      -0.07689329       0.12948480
H       13.24747310       4.64654018       9.45321047       0.17437376      -0.09202997       0.25776713      -0.03376620       0.25599308       0.06485713
H       14.10518986       5.33567747       7.16370315      -0.09161866      -0.63719064       0.33778275      -0.02676479      -0.02705865       0.24790265
H       14.36209563       3.70707088       6.62434568       0.03569466      -0.02268073       0.23270458      -0.07732201       0.07292028       0.26135772
H       13.84935746       1.85929990       8.45873008       0.08136906       0.64784988       0.64778587       0.05195785      -0.02836558      -0.18200816
H       13.31563991       2.37237472      10.15535580      -0.01157738       0.01632656       0.45542953       0.13228733      -0.08007750      -0.05231608
C       10.23381045       1.77977601      13.02169321      -0.96478590       0.24865766      -2.14427090      -0.11271439      -0.09606594      -0.07619947
C       13.63218903       3.86824192       8.72689389       0.05370766       1.23880845      -0.76096787       0.64743423       0.39066579      -0.29744408
N        9.87112302       2.31568575      14.18706657       0.70290375      -0.94714591       1.98264201      -0.20932828      -0.50373419       0.37603764
N       10.34612325       0.48241372      12.74732297       0.32426402       0.00445098       1.26308515       0.16279818       0.61041388      -0.30692158
N       14.10757494       4.32124152       7.43087224      -0.20810271       0.43765194      -0.33476092       0.39753706       0.45091882      -0.13231539
N       13.61906070       2.62900443       9.15910560      -0.02140138      -1.33718769      -0.92498557       0.26270120      -0.18541668       0.39907844
Pb      12.41641610      30.02445544       8.07986257       0.31864355      -0.11692284      -0.08368728       0.08307552      -1.12674281       1.30061283
Pb       8.52639245      30.00667028       8.21428528      -0.16091611      -0.08809896      -0.21147015       0.46221321      -4.64096441      -0.26403459
I       14.51126178      30.82148767      10.45107915       0.09613296      -0.21158401      -0.12500273       1.28673130       1.26920046       0.35664402
I        9.28582938       4.97220117      10.66091985      -0.09973953       0.23889776       0.04747912       1.06141177      -0.25215944       1.32707935
I       14.37832220       0.45547631      15.26932339      -0.04758371      -0.04228617       0.08222346       0.22564266      -0.02433269      -1.45692380
I        9.67206831       5.75424922      14.94637192      -0.02427470       0.12705921      -0.04057118       1.26787898      -1.60109935      -0.59652703
I       13.55612409       3.91745198      12.60479123      -0.30054817      -0.02541174      -0.02563929       0.39660164       0.00135445       0.20784423
I       10.31644391       1.43322393       9.02105048      -0.17120870      -0.08709401      -0.06317304       2.04519732       0.82425164      -0.36591191
H       10.07682410      10.20303733       9.28561688      -0.16543468      -0.69783375      -0.52658069      -0.25705863      -0.03457885      -0.04780677
H       10.30114684      11.01179077       7.14264974      -0.11277975       0.57279679      -0.59645321      -0.01524008      -0.32287826       0.13902586
H        9.89829479       9.45986264       6.37439917      -0.12712159      -0.23095090      -0.75555131      -0.26211923       0.09714990      -0.13897702
H        9.48337174       7.63508127       7.69480214      -0.02815718      -0.84359754       0.20100893       0.04520932       0.05964093       0.04768527
H        9.63137363       7.77064520       9.53717359      -0.16765331       0.02621142       0.38976984       0.01097518      -0.15576186       0.15313986
H       14.38870313      10.43052568      13.47472242      -0.10049874      -0.07734635      -0.05049287      -0.02538678      -0.19592136      -0.12444328
H       14.00050625      10.00885120      11.23139198      -0.04305274       0.08506715      -0.15643324       0.09759588      -0.16232816      -0.20869530
H       13.71476903      11.74790227      10.81900819       0.16174973       0.87565431      -1.11779253      -0.09902485      -0.08797962      -0.00118648
H       13.89589964      13.39647595      12.67279437       0.18919000      -0.72168633       0.99938896       0.10856789       0.20351417      -0.09090288
H        5.50319186      10.16032836      11.52164976       0.29760564       1.65266900       0.49725918      -0.00728191      -0.22203074       0.09761924
C        9.88294395       9.51134298       8.39834483       0.32963600       0.68218827       1.86926095       0.48294355      -0.33198226       0.80706595
C       14.16168882      11.30921967      12.79443311       0.41804825       0.42509185       0.11006183      -0.33193676      -0.09510305      -0.34152481
N        9.95277637      10.02981422       7.20619387       0.39171899       0.37103831      -0.34214148      -0.18688825      -0.15653163       0.41329229
N        9.63794850       8.22054610       8.58816493      -0.16656037      -0.08482769      -0.25863631       0.02979662       0.53847289       0.19922881
N       13.96133953      11.01681871      11.50373592      -0.00304262      -0.38897239       2.56209068      -0.79811934      -0.01243871      -0.66350451
N       14.17002051      12.54965546      13.33586102      -0.55821448       0.38018318      -2.39905251      -0.81066460       0.02305829      -0.09478386
Pb      11.44849587       6.61908328      12.23279600       0.35868848      -0.08503081       0.41410565      -0.55399616       0.85061115      -0.78860109
Pb       7.49463825       6.93348229      12.78245367       0.07858630      -0.44700584      -0.02128537      -1.26940615      -1.10075199       2.14946217
I       13.78413514       7.75068754      14.44474138      -0.16489440       0.02294371       0.07080907       0.11383545      -1.06665760      -0.58690379
I       10.72024780      13.37022226      14.86445727      -0.33907300       0.24527072       0.17689219       2.27954154       0.11719991      -1.39302177
I       13.54613313       7.67746816      10.03372698       0.03290629      -0.08600469      -0.00209910       0.54820148      -1.27922063      -0.07533587
I       10.41774327      12.81307680      10.28193015       0.06144171      -0.00119458       0.28372924       0.21076816       0.16535427      -0.56474333