768
Lattice="40.227587415121015 -0.7682833808457515 1.3263590934115383 0.394859312395313 23.52400323722727 0.25591382290307674 -0.5366011814355014 -0.10491616676151522 18.726843227480614" Properties=species:S:1:pos:R:3:forces:R:3:momenta:R:3 energy=-3623.556165845176 stress="0.0 0.0 0.0 0.0 0.0 0.0 0.0 0.0 0.0" pbc="T T T"
H        6.81064894       1.37825542       4.10797145      -0.20015991       0.11659449       0.27988237       0.03497736       0.10270396      -0.24662834
H       11.38187773      12.40317941       2.16679194      -1.06048058       0.68499887       0.01051576      -0.08572131       0.04847468       0.05475252
H        1.12055417       6.74687079       4.80008569       2.73085999       1.29055711      -0.07647045      -0.18669802       0.02409807       0.18090364
H       17.42363333       6.46955620       1.00093379      -2.15699070      -0.76359728       0.46235273      -0.17681660      -0.05547567      -0.29271505
H        7.10858358       3.33734081       7.48347356      -0.18042469       0.20198305       0.16459038       0.06641916      -0.04247343      -0.04510767
H       11.75775841      10.88794695       0.23994844      -1.08281546      -0.53679213      -0.54589224       0.37817580      -0.04132664       0.05596970
H        3.49568761       6.21784235       7.23138979      -0.41777593      -1.12581033      -0.29123535       0.03498548       0.08456523      -0.19037934
H       15.06640023       7.89966987       0.93891937       0.18917495      -0.17536624      -0.22462829       0.32224291       0.09692785       0.05220569
H        3.84891521       1.83099682       4.51979753       0.68915527      -0.17714783      -0.15676163       0.07993397      -0.31007788       0.22392523
H       13.54366654      10.77967956       0.56970881      -0.81128767       0.29010686      -0.19431648       0.50605886       0.21770208       0.03514798
H        4.16059191       7.85505937       7.71217544      -1.23818880      -1.20029645      -0.40718029      -0.01795136       0.02779578      -0.19114025
H       13.90307369       7.03673651       2.36030608      -0.82952183      -0.07167926       0.04791091       0.02371207       0.03324796      -0.31265472
H        4.85931193       3.34320559       3.04543943      -0.61640933       0.77223629      -0.18917265      -0.15375618      -0.23497881       0.10621855
H       14.41713418      12.04412299       2.39119811      -1.54476080       0.65909926      -0.22465720       0.24355180       0.26051142      -0.12921853
H        3.95763354       7.65132334       3.30552323       1.81803714       1.35521515       0.44524605      -0.08554143      -0.13348483      -0.11290412
H       14.95786520       5.55117177       3.89758335       0.39177284      -0.10273821       0.03895612       0.26641259       0.14911008      -0.20369947
H        6.59828039       3.42790442       2.94968628       1.33374994      -0.05379733      -0.42048124       0.10226281       0.03798328       0.07590386
H       13.37566531      13.22841166       3.28493264      -0.54026453      -1.11290342      -0.80250656       0.13209275      -0.19568768      -0.28615122
H        3.09125503       6.04936103       3.44094371      -0.06775962      -1.21976133      -0.91226763       0.33988064       0.34232301      -0.25245692
H       14.34990077       7.82266165       6.35252565       1.00247497      -0.00512064       0.35523045       0.14334237       0.25938500       0.11404477
C        5.82838566       1.89188972       4.02347953       0.41804225      -3.28851892       1.22049433       0.04754997       1.04257391       0.15703001
C       12.35193885      11.98716207       1.88800340       2.12228593       0.62894127       0.51114895       1.18982477      -0.07790222      -0.22238045
C        2.13106755       7.46714854       4.50288238       0.07568003      -0.19905754       0.17186227       0.17195276      -0.17232883       0.53546169
C       16.14989265       6.42312433       1.84886020       3.88237863      -1.95595239       2.00501236       0.55278464       1.24778770      -0.29331075
N        4.75498005       1.31546118       4.54569722      -1.97435492       1.94637220      -0.34323107      -0.08292635       0.14307868       1.01309246
N       12.54825300      11.14858148       0.80351747       1.42460618      -0.79279615       0.42329124       0.34215843       0.28097563       0.67266024
N        3.37571824       7.05613216       7.79189774       2.97496913       2.34477704       0.38050659       0.11115525      -0.06685583       0.27151170
N       15.00581372       7.09812762       1.60669452      -0.87776169       0.78404936      -0.75708134      -0.03815084      -0.14490419       0.12114031
N        5.77305806       2.95521785       3.31080170      -0.74454312       1.57897959      -0.54395331      -0.19101672      -0.53961745       0.26101861
N       13.38636228      12.39126133       2.61852408       1.46826273       0.59957454       1.02196255      -0.28503130       0.66483701       0.66068637
N        3.18332312       6.99785530       3.77199120      -4.32076925       0.25869858       1.26037309      -1.28997273      -0.06882574      -1.11725384
N       16.01825414       5.56625214       3.03985625       0.43069867       1.99199515      -1.01311781      -1.04366220       0.06450678       0.22235011
Pb       0.08388023       3.33313091       1.65999556      -0.38686709      -0.03359309       0.01640776       0.99951321       1.51185533      -2.13028029
Pb      18.11125002      10.62520903       4.77781327      -0.00256745       0.47188640      -0.41831664      -2.88880716       1.52506179       1.61269481
Pb       8.43200554       8.57325291       1.70422505       0.09677462       0.23954469      -0.33633345      -3.81363792       3.04048042      -2.87150460
Pb      10.52905425       4.85638130       3.84190686       0.14246180       0.35014500       0.49409230      -1.37660015       1.58989327       0.67741138
I       39.14451843       4.69602286       5.54269025       0.26415113      -0.52369742       0.00908191      -0.14861969       2.67617434       4.90207535
I       38.96959621       8.08734627       3.20406021       0.31230962      -0.18661482      -0.00583702       1.19465969      -0.82052199      -2.66345437
I        9.01452036      10.70058838       4.10163717       0.12091971      -0.17694121       0.17148144       0.53178562      -1.92458619       0.35509459
I        9.29214963       3.04311668       1.88216305      -0.04612095      -0.07708030      -0.37210471       0.16520254       2.86875251       0.11866108
I       17.74081417       1.00191010       2.07887075      -0.11664796      -0.48325849       0.22747691       1.86358853      -1.92915936      -4.25304867
I        1.29230185      12.48387739       4.02714771       0.17961054      -0.15323934       0.10844704       1.07594266       1.38834352       1.15631718
I       11.51030274       7.27885334       1.71478525       0.02700094      -0.00517464       0.06115362       0.40346081       2.60771044       0.13321260
I        7.55249241       6.40453051       3.78426350      -0.28021878      -0.12498217       0.02129017       5.55052580      -0.02690525      -2.85310330
I        2.94773062       4.31462405       1.41236709       0.28752939       0.08215044       0.03638136      -0.04618778      -3.07673234       1.36430699
I       15.04107069       9.70019598       4.23062644       0.43688573      -0.18792092       0.22698305       0.62998937      -2.44507666      -0.88073723
I        5.45342727       9.56673508       2.07018428      -0.26229717      -0.04177659      -0.17068905       0.39902747      -3.85210804       0.85611948
I       13.43291427       3.91627213       4.60757489      -0.02536696      -0.20451196       0.02183754      -5.34322152      -1.91158404       0.04879209
H        6.81119853       1.49171060       8.97299962       0.08758246      -0.05836749      -0.98076657      -0.07638776      -0.10393461       0.38686745
H       10.58487518      11.56899008       7.53871002      -0.14476726       0.04049657      -0.13152992       0.35398713       0.18737044       0.36762245
H        1.39263731       6.87181255       8.36594222      -0.35279159      -0.41723745      -0.29614690       0.10847411       0.11326179      -0.16652593
H       16.56994043       7.43863912       6.94172096       0.77180624      -0.64838468       0.76670390       0.21179239      -0.27241742      -0.02147658
H        4.59354082       0.48068346       5.09322684       1.42817439      -1.08807294       0.19582508       0.27384466       0.24335531      -0.05027505
H       11.29072042       9.92235553       5.77217656      -0.79354531       0.09598885      -0.46298695      -0.11681265      -0.05709279      -0.02702744
H        1.45978031       9.10824773       5.57558497      -2.62343029       0.16951697       0.77019500       0.07240910       0.01518040       0.08217452
H       17.07727264       5.71729135       8.79592722       0.87481484      -0.37050984       0.87175246       0.33195355       0.16465385      -0.13300843
H        5.36974073       3.75195717       7.35778352       0.07152181      -0.63836740       0.13999066      -0.07021155      -0.22078096       0.16497382
H       13.35518907      10.62498504       5.33847279      -0.77768361       0.11660244      -0.08735113       0.18907571      -0.22065216      -0.20717958
H        3.00836197       9.35227947       5.07011154       1.00948571       0.13191406      -0.32159030       0.06811226      -0.01968898       0.05921685
H       15.19033593       5.47441523       9.36285833       0.71942706       0.06208980      -0.14704442       0.00703670      -0.04768831      -0.28050038
H        3.80052576       2.12350513       8.48227470       0.99540799      -1.09362222      -0.01165018       0.13260201       0.00863111      -0.12335672
H       14.19152244      12.73936098       6.56527975      -0.35928636       0.24483109       0.06735728      -0.08954686       0.05115630       0.15519906
H        3.00655276       9.18459132       9.06873392       1.47745131       1.21183196       0.39370703      -0.09185999      -0.03648470       0.09812468
H       13.51669102       6.79668942       7.67214865       0.65905177      -0.21527126       0.29408710       0.23753177       0.02304049       0.36611632
H        4.67765161       0.64658549       9.20788961      -0.54486146       1.00796641      -0.30085306       0.19807333       0.30001026       0.34104246
H       12.69152074      13.47300127       7.70430407      -0.48862062       0.10075237       0.27673686       0.28855191      -0.03399588       0.02938766
H        1.38752418       8.97564204       9.38811354      -1.09446512       0.10042832       0.34886422      -0.10669949      -0.34909679       0.21215849
H       16.98584773       5.14861734       3.28549005      -0.83294401       0.15084077      -0.52437746      -0.49939054       0.09176740       0.01953896
C        5.91249844       2.00581706       8.41170657      -0.14017114       1.32005379       0.46418093       0.13102972      -0.89148777       0.58297810
C       11.85493481      11.56489829       6.93890272      -2.14031837       0.18773854      -1.03867950      -0.86726635       0.27737639       0.48770181
C        2.29236947       7.49563721       8.32970770      -1.13251602      -0.77410231      -0.26502537      -0.34088143      -0.25213555      -1.45784177
C       15.75036102       6.80512367       7.66306143      -0.89743755       1.00897985      -1.83459950       0.84254676       0.15715494      -0.26743075
N        6.12816360       3.14906857       7.77429099       1.21749058      -0.22908566      -0.35189114       0.27060611       1.14478705      -0.32000455
N       12.18631955      10.62989316       5.93463913       2.21259994      -0.01088884       1.18293343      -0.41182690      -0.80529122       0.29065535
N        2.18258510       8.75774763       4.99292768       1.61527436      -1.54469685      -1.34974830      -0.56830626      -0.32860207      -0.68659492
N       16.02122811       5.93395918       8.72178697      -1.68897560       1.00080830      -1.12307974       0.02489988      -1.47927186       0.40818818
N        4.67188583       1.54385816       8.65843097      -1.21182173      -0.92400288       1.04439938      -0.32562134       0.20369170       0.04991981
N       12.88716867      12.57549633       7.22423127       2.54808059      -0.53288175       0.14061752      -0.35616757       0.27042027      -0.61110336
N        2.19908461       8.69124018       8.86688548       0.07837959       0.13470771       0.44034506      -1.48008261      -0.31708002       0.11854850
N       14.52282542       7.09964971       7.16870674      -1.34518213      -0.91370548       0.45370513      -0.34918611      -0.98578302       0.19076463
Pb      -0.07600124       3.10694725       6.39851878       0.35997079       0.27978526       0.00399223       0.33312716       4.11955407       4.82293683
Pb      17.90277092      10.81360772       9.45545221       0.16442709      -0.06767169       0.02862178       1.22050099      -2.39014255      -2.38109060
Pb       8.01371344       8.37605999       6.30499968       0.22268878       0.23266470       0.07451202       1.76130468      -1.67992869       0.47561488
Pb      10.56405988       4.91065059       8.92965943      -0.35740389       0.02339162       0.02656806       4.71264626      -2.46534111      -0.59775824
I       39.21171136       4.40024295      10.14254367       0.34259037      -0.38292520       0.15448822      -2.10200550       1.72336834       2.12864319
I       39.33375455       8.46545070       7.95023503      -0.12078852       0.00794234       0.08851329      -0.53096268       0.99035434       1.43318642
I        9.34382278      10.30436860       8.65179827      -0.06135834       0.07340820       0.02540136      -0.34019019      -1.67051644       0.33476374
I        9.44422174       3.04175993       6.10096494       0.02830537       0.09431270       0.39990124      -4.23688477       1.32745702      -0.88776609
I       17.19922605       0.78085787       6.79794601       0.25476671       0.17276454      -0.14566785       0.88621842      -1.85543677      -0.70001674
I        1.18500235      12.45366005       9.13256614       0.38334882       0.17581347      -0.26211581       1.34281366       1.43412441       3.69305549
I       10.97248486       7.05368346       6.63327690       0.30770028       0.13794312      -0.29115776      -1.91566929      -1.75294326      -1.12677487
I        7.46885567       6.24086102       8.72068796      -0.19553633      -0.02078506      -0.10432944      -0.85095152       0.13048751      -0.37374299
I        3.15457975       4.01110519       6.33070439      -0.24380334       0.03703410      -0.29184417      -1.90741226      -0.16038440      -0.15991467
I       15.07576051       9.56436036       9.16194090       0.23090600       0.24935579       0.02009016      -0.54460088      -0.42244565       1.92588806
I        5.28479912       9.91861838       6.78637338      -0.22564277       0.05844191      -0.09708311       2.13694640      -1.06410272       1.23165649
I       13.42903991       3.71575065       9.86979537      -0.07726746      -0.15156639      -0.26514516       0.78765949       1.29886475       1.72581723
H        6.97091283       1.63112663      13.95957971      -1.65857881       0.90329848       0.09422460       0.09401572       0.26450552       0.13953601
H       12.14347705      13.28550214      11.74854301       1.21939497      -0.79224368      -0.36502247      -0.30075919      -0.09420697      -0.34962268
H        1.18234902       7.03171195      12.93081139       0.48778707       0.83288148       0.47404313       0.17736661      -0.29066181      -0.14772400
H       16.97447573       6.42625883      12.05913704      -0.71498460      -0.37373804      -0.26738851      -0.27311984      -0.15469637       0.09838071
H        6.18142998       3.42651197      17.88196959      -0.11179880      -0.52545165      -0.07694036       0.11600869       0.07283954       0.21649107
H       11.33850753      11.25216474      10.42486625       0.21973468      -0.02254847       0.25259968      -0.21725619      -0.01934155       0.30034428
H        2.86976242       6.17440977      16.78528851       0.20488894      -1.23760958      -1.03721384       0.11307252      -0.18320785       0.31531791
H       15.34352149       7.35207397      10.67977155      -0.26842029       1.29878095      -0.81097277       0.15279828      -0.01491079      -0.32164295
H        3.53928947       0.99566246      13.26688737       0.62574153      -0.54404147       0.30511262       0.00030029      -0.47070940       0.16285559
H       13.00215557      10.56882010      10.33590471       0.43680530      -0.31846282      -0.01340235       0.12022683      -0.26014663      -0.17403310
H        3.57028416       7.70932189      17.36087177       0.63053410       0.05761888      -0.02245443       0.08802127      -0.20959358       0.12880210
H       14.23252131       5.78753489      10.22992725      -0.06543155      -0.63829939       0.56428837       0.17580791      -0.12285382      -0.13734782
H        4.58602975       2.87509318      11.73852236      -0.00998560       0.20901083      -0.17964654       0.13245217      -0.07184902      -0.02804500
H       15.07231020      11.83254134      11.23572697      -0.32610895       0.27293786       0.20440989       0.44157939       0.07191304       0.19990460
H        3.98279036       7.73617622      12.45830580      -0.34756206      -0.40938231      -0.40985832      -0.07882529       0.19864974      -0.12196728
H       14.93093775       3.94887349      11.87106782      -0.64044906      -0.92077975       0.23138965       0.02280301      -0.13150226      -0.00854736
H        6.46096788       2.90372276      11.94360511      -0.32779437       0.70669293       0.07049183       0.27925446       0.19928435       0.20830662
H       14.51380508      13.37394947      12.21813891       0.53625703      -0.40465363      -0.21883678       0.17996363       0.14242928       0.24325981
H        3.06065865       6.31269016      12.03923310      -0.21898251      -1.73284854      -1.14311948      -0.35453086       0.07120754       0.40799107
H       15.07567429       7.14557399      14.91822262       0.12646750      -0.24370740       0.57615527      -0.05129232      -0.23530261      -0.35387045
C        5.76154639       1.81570736      13.48334433       1.24414835      -2.03276178      -0.22867666       0.06581608       0.00621742       1.40575829
C       12.90560215      12.43524229      11.32254321      -1.35088560       0.31877417       1.04167718       0.53237511       0.00928780       0.76220812
C        2.06869903       7.73079011      13.05436468      -2.92505889      -3.47367567      -2.01733033       0.54837964      -0.03872858      -0.22053128
C       16.03782700       5.74323672      11.65419147      -0.71973120       0.92696590      -0.83708528      -0.52458438      -1.06778435       0.00671276
N        4.72734238       1.02944125      13.92611847      -0.37397134       0.29825104      -0.02355995       0.51917386      -0.84088420       0.82711124
N       12.34605793      11.28158749      10.77141744      -1.31336389      -0.47068328      -1.51861225       0.33152566       0.88488452      -0.62770635
N        2.83221810       6.95128847      17.42691089      -0.98531001       1.58137855       0.70239722       1.11537743      -0.20735660       0.03166863
N       15.10280502       6.32292533      10.85684501       1.73083349       0.19239127       0.53490149       0.88571090      -0.14284952       0.38250445
N        5.54980082       2.66417604      12.35337993       0.71852586      -0.11864011       0.06759258      -1.50483104      -0.08722155      -1.02517946
N       14.29955076      12.53808781      11.58861529       0.24151383       1.41212970       0.74895611       0.00123387       0.07952362       0.54406394
N        3.07661593       7.23589969      12.38988901       2.12755203       3.00221666       2.09226986       0.02529918      -0.11973539       0.10279227
N       15.87397739       4.42014920      11.99781674       1.31637773      -1.02891341       1.03600517       0.06265750       0.34144340       1.03378877
Pb       0.38372232       2.84845639      10.95236842      -0.47107025       0.10861944       0.21343227      -1.64087198       2.13384022       1.49548083
Pb      18.07973718      10.00928746      14.06525325      -0.03808482       0.80584528       0.32088145       0.63045058      -6.68577891       2.82819774
Pb       8.01896309       8.42749346      11.01448758       0.30000903       0.18653848       0.54845616      -1.61115654      -0.29203397      -0.69161999
Pb       9.90157599       4.83085572      13.79506702       0.25484713      -0.24326482      -0.16742540      -0.82737857       0.25100492       3.50774431
I       39.15587281       4.27891090      14.28895471       0.17045665      -0.07105845       0.13412754      -1.48438059      -2.08440180       2.56685976
I       39.49281429       8.50083641      12.39780995      -0.09574392      -0.17542140      -0.36794052      -1.04699832       2.66241917       4.30082432
I        8.93200423      10.65293048      13.38754579       0.34163752      -0.23737620       0.18838189       4.18621015       1.71265410       0.86697805
I        9.10134430       3.14915894      11.07602311      -0.26484682      -0.41993718       0.06329902       2.57030631       1.42763150       2.27612904
I       17.43040203       1.19926036      11.69081553       0.00523913      -0.27901051      -0.15106730       3.41184856       0.49991776       2.90587922
I        0.73044459      12.28559911      13.71283010       0.42661501       0.24796860      -0.22408868      -0.21166061       2.65172478       2.82073529
I       11.18343278       6.75007525      11.51754028      -0.24408603       0.21274056      -0.27936157       0.75287567      -1.88771970       3.53725867
I        7.14375662       6.38204008      13.52731306      -0.28376545       0.10095736      -0.20854819       1.28853148      -3.12266299       1.96827825
I        3.12697932       4.36904705      10.53422682       0.06331500      -0.11128642      -0.09170433      -4.00414933      -2.63946104      -1.72776061
I       15.17454796       9.11799134      13.24894424      -0.26899749      -0.01240074       0.25888589      -4.21882382       0.28911756      -2.37468925
I        5.25357036       9.76223619      11.78202375      -0.22012606      -0.04161224      -0.46877924       1.91705094       0.92604262      -1.06195719
I       12.77990511       3.32566472      13.75430357       0.05901878       0.04969802       0.14560128       0.27033220      -4.64387542       2.86316530
H        6.38604454       1.37602758      18.99600607       0.86910748      -1.03890842       0.11173640       0.12330147      -0.11009702      -0.16064458
H       11.71910313      12.77924249      16.45085053       0.40589489      -0.21274029      -0.37887488       0.16074339      -0.12220322       0.16664930
H        0.87542440       6.29660291      18.19787663       0.89078712       0.43099289      -0.16648412      -0.07582160       0.29887941       0.00596438
H       17.01885953       5.82600289      15.74161225      -0.62272443      -0.60419061       0.21871951      -0.02398018       0.03539689      -0.07458664
H        4.96604432       0.17007697      14.53554984      -0.08503605       0.76526832      -0.04076246      -0.31105397      -0.06411003      -0.13557056
H       11.73710184      10.83461210      15.12571669      -1.20216756      -0.50831020      -0.53848587      -0.11365380       0.03790805      -0.28874918
H        1.06621047       8.99994837      14.19655373      -1.86881828       0.22434540       0.50132878       0.11369139       0.10058646       0.54661107
H       16.63743184       3.75778638      16.92855841      -1.97067697       0.49609229      -0.99271633       0.18915521       0.13768354       0.04853238
H        4.38892583       3.29151964      17.90561504      -0.15793133       0.33990998       0.00584378      -0.06074809      -0.05701119       0.07843673
H       13.40128098      10.48383056      15.31434922       0.20042969       0.11388857      -0.16335414      -0.16751424      -0.10811108       0.20478801
H        2.69690227       9.45469572      13.99324779      -1.18388626      -0.97278790      -0.62910479      -0.02072309       0.25125259       0.00414512
H       14.73916636       3.98188331      16.83148881       0.31614756       0.02565326      -0.06358553       0.08784907      -0.14212414       0.08871438
H        3.58130448       1.90588084      19.64488560      -0.42672553      -0.79925619       0.23558143       0.08298581      -0.22129283       0.05182573
H       14.79048651      12.29821913      16.45524363      -0.47752277      -0.28242443      -0.40492070      -0.02246742      -0.26277575      -0.10245129
H        2.41335331       8.64152504      19.37581213      -1.89461124      -0.98156112       0.07027481      -0.06948131       0.20245261      -0.02038487
H       13.79776236       6.07250028      15.72966309       1.33747225       0.65621817      -0.12683299      -0.10578162      -0.05571261       0.01445252
H        4.48504205       0.24814102      19.98525846      -0.37879663       1.58571820      -0.79395807       0.46846482      -0.04353156       0.32828481
H       14.02018828      13.60625476      17.17165746      -1.12737569      -0.09276148      -0.35858843       0.02228096      -0.11466310       0.07012963
H        0.70312665       7.98974119      19.88207922      -0.53140876       0.27397058       0.28816287       0.06973938       0.06139460       0.28905856
H       16.64972928       3.85051248      12.52604572      -0.69425459       0.59788441      -0.22545958       0.46878964       0.20701050      -0.23997211
C        5.39071502       1.78341010      18.90679490       0.65387094       0.88718668      -0.18800206       0.64404659       0.50687218      -0.57402337
C       12.67166073      12.24058283      16.18980649       0.78472187      -0.35321100       0.33842974      -0.29581976      -0.08925103      -0.20389811
C        1.73402897       7.05298739      18.25800001      -0.82815844      -1.02251910       1.10302622      -1.51088364      -0.87654801      -0.68390435
C       15.92517808       5.47798409      15.95270182      -0.34400163       0.47780071      -0.98435641      -0.05494843      -0.59622058      -0.06258254
N        5.31238258       2.91018821      18.21165235       0.16190475       0.61930501      -0.34367671       0.28759794       0.45340350      -0.47631768
N       12.60071028      11.07857674      15.53161512       0.02410202       0.98429565       0.58848513      -0.37466630       0.37643927      -0.55489994
N        1.87979214       8.84687427      13.65361202       3.97328546       2.44146192       1.36453767       0.31233315       1.19261498       0.49581165
N       15.75331305       4.22942160      16.47118650       2.01827764       0.10868032       1.27542166       0.03176058      -0.07658004       0.06072137
N        4.38734709       1.24253818      19.53830314      -0.46500843      -1.02322725       0.64272466      -0.04848645      -1.13964997       0.02557187
N       13.84677267      12.72499151      16.61040516       0.94907295       0.28142080       0.50230136       0.24647886       0.97474348      -0.45068468
N        1.58979194       7.86501288      19.39429489       2.70869396       1.31772100      -0.76050642       0.50736905      -0.88396117      -0.59553876
N       14.85840607       6.33748447      15.58296890      -0.79630699      -0.79616792       0.12541282      -0.18331930      -0.47547565      -1.07102463
Pb      -0.19954905       3.36457116      15.68566478       0.24516988      -0.19459974      -0.07739303      -3.36870614      -0.72097630      -1.51117373
Pb      17.86139225      10.44602899      18.59779463       0.35076741       0.80408942       0.00187957      -1.50218655      -4.05989619      -0.24167234
Pb       7.63272002       8.65090511      15.73562282       0.33860241       0.22824134      -0.17519498       0.25015328      -0.18259437      -1.56294362
Pb      10.20846642       4.84802176      18.21918932      -0.48358894       0.29009101      -0.37088958      -0.20943040       0.43226078      -0.67639516
I       38.61143843       4.37996915      19.14942586       0.15235019      -0.00419724       0.31924609       0.04799851      -2.72833264       2.11619445
I       39.03606248       8.16378264      17.04923059      -0.05155856      -0.14852671      -0.52251013       1.43717450      -1.27872780      -0.35237576
I        9.14606514      10.68210892      18.01028392      -0.51428877      -0.29633897       0.02534135      -0.16452464      -0.56626752       0.93273992
I        8.71079437       2.74738144      16.16457767      -0.03090554       0.24485409       0.01367175      -0.17083666      -1.41215651      -4.41501490
I       17.07232718       0.56140107      16.29519422      -0.12123145      -0.06852380       0.03228898      -3.40338047      -1.64603639      -0.88368956
I        1.01811967      11.93580033      18.17597325      -0.26546723       0.10465319       0.14778357       0.53932490       1.30453509      -3.44336329
I       10.58905514       7.31193848      15.63161252       0.39035225      -0.38449455       0.50702043      -0.30518927      -0.24094268       0.32647498
I        7.23177177       6.31855502      17.99845099      -0.32901944       0.16810441       0.14883433       2.05038562       2.45256070      -2.38938244
I        2.82978468       4.20665232      15.71211771      -0.17221227      -0.12119565      -0.26961073       0.26589684       3.15415558       1.40879707
I       14.89079645       9.82099546      18.39029762      -0.05563025      -0.34621732      -0.32459052      -2.05377112      -0.37125402       2.39728026