768
Lattice="40.227587415121015 -0.7682833808457515 1.3263590934115383 0.394859312395313 23.52400323722727 0.25591382290307674 -0.5366011814355014 -0.10491616676151522 18.726843227480614" Properties=species:S:1:pos:R:3:forces:R:3:momenta:R:3 energy=-3637.3056790674777 stress="0.0 0.0 0.0 0.0 0.0 0.0 0.0 0.0 0.0" pbc="T T T"
H        6.58330258       0.36417927       4.45224583       0.61421901      -0.24534118       0.15102968      -0.38308572       0.04484540      -0.06626594
H       11.62352756      12.66170481       2.39757341       0.33898184       0.05941117      -0.49672729      -0.02824814       0.03123281       0.32849599
H        1.62231737       6.67223043       3.77723651      -0.40584986       0.28656062       0.14750976      -0.06870320      -0.00105193      -0.19788131
H       17.09492196       6.78380567       2.55714380       0.03290541       0.56937588      -0.22923129       0.00589945       0.09936392      -0.13662561
H        6.47415186       2.69095604       7.18693400       0.77077805       0.12482730      -0.28933426       0.18158235       0.06944328      -0.20784956
H       11.39905116      10.80551101       1.09128914       0.82884761      -0.18617340       0.17320941       0.08953379       0.05291660      -0.01648949
H        3.51609764       5.74872746       7.64319768      -0.23632104       0.20517775       0.33628947       0.04477423       0.08891851      -0.25222581
H       15.33412516       7.40648948       0.75481865       0.31505108       0.20263571       0.08908933       0.15709161      -0.07961027       0.10924063
H        3.75579531       1.34843720       4.59741722       0.62893754      -0.40672230       0.07808139      -0.01772764       0.03589444      -0.03087811
H       13.23111480      10.50171012       1.05551157       0.02440123      -0.16779596      -0.53322980      -0.27744172      -0.05018133       0.14485366
H        4.40611145       7.31434949       7.85379493      -1.11935598      -0.38209499       0.08844663      -0.21174125      -0.08611809      -0.09782358
H       14.49800501       5.76175621       0.80664043       0.71746417       0.46786120       0.12790677      -0.29330101       0.10097594       0.12170408
H        5.42173573       2.94582139       3.44535437       0.53050573      -0.17397470       0.05153723      -0.32646509       0.14440764       0.20486634
H       14.77768759      12.37939686       1.95688392      -0.49520800       0.36268475      -0.11337987      -0.29976307      -0.03370875      -0.03640655
H        4.47998411       7.65925573       3.94402013      -0.35431464      -0.64916058      -0.41235919      -0.06594849       0.05297631      -0.07951351
H       15.12220563       4.49293638       2.89416218      -0.58862715      -0.44528633       0.24207348       0.03241355      -0.04949156      -0.01833937
H        7.09533211       2.28029648       3.24577990      -0.08681457       0.33790387       0.21610967      -0.04264451       0.12001599       0.15905355
H       13.89653982      13.66727564       2.79188662      -0.47692587      -0.05241854      -0.09813479      -0.09614538      -0.08219289      -0.15301689
H        3.55435218       6.23859638       3.06374571       1.05305715       1.22341522       0.71063495      -0.07499569      -0.11978426      -0.16751441
H       15.06608541       7.65316435       5.61974701       0.31507366      -0.50732287       0.59804554      -0.05656915       0.06849875       0.11471858
C        5.80802244       1.12338284       4.31827564      -1.09340665      -1.70817917       0.52978351       0.42657460       0.64738149       0.04097219
C       12.61402303      12.20762980       1.95221496      -1.05105461       0.88684409       0.86693954       0.39771910      -0.03107845       0.38777813
C        2.40786965       7.40370661       4.13937497      -0.76539386      -0.64507107      -0.43034985      -0.77964762       0.94525252       0.36641185
C       16.15330840       6.19162143       2.27713297       0.49966562      -0.71583554       0.20932903       0.99406079       0.54646166       0.38702942
N        4.58283313       0.70994146       4.69197415      -0.30937023       1.26516968      -0.53030779      -0.24374772      -0.94922118       0.48412093
N       12.43364910      11.09734715       1.28829958      -0.98632628      -0.36867487      -0.20614062       0.17157203       0.23653545      -0.60021930
N        3.52618147       6.70506549       8.06835717       1.74051686      -0.40710513      -0.71899258      -0.02693050      -0.37042335      -0.62028787
N       15.28082371       6.51556915       1.26395888      -1.43053356      -0.30759010      -0.21929621       1.12574821      -0.19191662       0.74196263
N        6.15844566       2.26646676       3.73861984      -0.84502877       0.98136750      -0.71155227      -0.23515533      -0.28329289       0.78777135
N       13.82386487      12.80201156       2.22736665       1.68896604      -0.74705812       0.28202642       0.30055976       0.25867841       0.23786664
N        3.62139006       7.09654221       3.70026553       0.18709501      -1.12739148      -0.57319411      -0.20485715      -0.10375278      -0.48415720
N       15.99171270       5.08275485       2.99695566       1.52370889      -0.24577634       0.16637611       0.28543842      -0.75452709       0.06865468
Pb       0.43573640       2.98468265       1.70657223      -0.53385438      -0.34434763      -0.32110304      -1.44007540      -1.14245905       2.58511853
Pb      18.28325762      11.08093355       4.54631824       0.12186631      -0.13484775       0.41693429      -0.43644057       2.28146870      -3.64991012
Pb       8.41152820       8.63470376       1.96590369      -0.33943076      -0.18724970      -0.05657096       0.25966188       4.05683837      -0.05014396
Pb      10.24627009       4.73565436       4.36990983       0.08554887      -0.04294073      -0.11850477      -2.65878158       1.98610245      -1.33266810
I       39.58867339       4.12016375       5.25981777      -0.23954927       0.09014724      -0.11066078      -0.31451758      -2.80017796      -2.56084099
I       39.29982770       8.07555519       2.67903651      -0.25622643       0.31654600      -0.07035943      -1.61704346       0.24001517       1.26528369
I        9.17086347      10.55548624       4.29154368       0.12270420       0.28943447       0.01574788      -1.15492141      -2.87212883       0.38331601
I        9.27846719       2.83520268       1.85602646      -0.06809779      -0.12924737       0.15285250      -2.39121950       0.43281148      -1.03063997
I       17.30170438       1.07249890       2.22368759      -0.23377100       0.07712959       0.16000377      -3.26418062      -0.11863599      -2.34956625
I        1.37946060      12.53579222       3.98460374      -0.32759985      -0.37190301      -0.12281402      -0.05752140       0.40038593      -0.80698402
I       11.29609271       7.01607763       2.20005908      -0.03784581       0.07054674      -0.06472417      -3.58081797      -0.03940292       0.16758050
I        7.33153014       6.50668446       4.17263205      -0.03215848      -0.16685591       0.15013782      -0.31876586      -1.24604089      -1.63099403
I        3.13565001       4.05874539       1.67846979       0.60895652       0.05872820       0.12829090       0.05259281       1.56399422       0.82563838
I       15.52179718       9.74365806       4.27368562      -0.32207572      -0.01511263      -0.12126584       1.79248540      -1.08314878      -1.52999602
I        5.38685191       9.83755118       2.02340742       0.14444193      -0.19734387       0.07734854       2.78515382      -2.06667267       0.93381386
I       13.34109498       3.79821211       4.63839887      -0.41570117      -0.06008008       0.15488797       1.19089673      -1.57347978      -1.10553145
H        6.76613957       0.60028514       8.31951168       0.63872000      -0.30014319       0.43538457      -0.32892988       0.06876775       0.06186427
H       11.87134287      12.79106019       7.10148412      -0.64337279       0.30108820       0.11097017       0.09671081      -0.06866921      -0.04595308
H        1.51368585       6.57644924       8.69205693       1.08057220       0.54467922       0.26807235      -0.01323724      -0.14996464       0.13383836
H       16.99520864       6.52675431       6.42996578      -0.27446792      -0.01265749       0.21198565       0.16409334       0.06701461       0.01644536
H        4.41352930      -0.25160719       5.10364017       0.41988696       0.28406471       0.02924073       0.09787029      -0.00606102       0.16474508
H       11.63389258      11.14588149       5.37939010      -0.60970091      -0.43104773      -0.34865525       0.17441668      -0.26514647       0.08119452
H        1.01323872       8.71814640       5.05011709       0.93804022      -0.47523723      -0.03995735      -0.03073640      -0.09452849      -0.12752922
H       16.89849753       4.71394086       7.84584583      -1.14653717       0.42002010      -0.53892894      -0.04012583      -0.30107998      -0.07886350
H        4.78270876       2.83599722       7.81292166      -0.63955626       0.83383933      -0.25087588       0.13561999      -0.13671204      -0.07395084
H       13.50419078      10.92724285       5.06198694      -0.98688495       0.38523185       0.08414889       0.08593037      -0.02665829      -0.06838139
H        2.83781989       9.02427310       5.26806860      -0.30823920       0.22860969       0.16469623      -0.01529728       0.06908160      -0.01100021
H       15.05308356       4.80321488       7.98012091      -1.01147621      -1.26592343       0.18344823      -0.06665952      -0.33104489      -0.10681496
H        4.02540613       1.45679681       9.87018390       0.28898606       0.69643443      -0.49678856       0.08828181       0.13873539      -0.07387005
H       15.08917364      12.45264074       6.32975489      -0.50445993       0.27243837       0.12667236      -0.14525778      -0.06031715       0.05631799
H        3.14719372       9.33643924       9.02311459       0.72482576      -0.11355366      -0.06756364       0.02052224       0.12613981       0.02954100
H       13.91235099       6.50120650       6.33605607       0.34321749       0.09627314       0.13064854       0.18967349      -0.05030186       0.24211448
H        4.99924375       0.12426578      10.07586242       0.47154078      -1.92710648       0.75633675      -0.16497448       0.19867352      -0.13634910
H       14.07613564      13.58702554       7.49068830       0.15633363      -0.40859442       0.14875366      -0.08389927       0.04424338      -0.05588003
H        1.48598348       8.84799760       9.37583818       0.72867426       0.01875837      -0.12061313      -0.25084950      -0.23102596       0.07271985
H       16.79421675       4.68270682       3.55998831      -0.64001086       0.49001364      -0.22524920       0.16181746       0.03585737       0.00011935
C        5.87793120       1.27111913       8.56474282      -2.16460626       0.09629068       0.20163979      -0.27536539       0.02129862      -0.20576294
C       12.79441414      12.30537532       6.59933698       0.41662387      -2.08662032      -1.60414359       0.27565789      -0.22048841      -0.43929039
C        2.46327889       7.23942498       8.59583650      -0.71948037       0.83672403       0.05063702       0.12963101       0.38649857      -0.33837550
C       15.95114293       6.15063263       6.75867096       1.70474651       1.45353556      -1.44648443       0.32344060       0.02497042       0.27415256
N        5.71982087       2.38444504       7.85027958       0.40613156      -0.50825689       0.22721605      -0.05456183      -0.06435380       0.08418914
N       12.60858283      11.32734423       5.64622939       1.56915027       1.45509280       1.38260778       0.56222973      -0.06940038      -0.32822106
N        2.07064098       8.41463263       4.92758187      -0.21257043       0.99698321       0.40415518       0.42505497       0.15762500       0.25716865
N       15.96741293       5.06781333       7.46159115       1.35513674      -0.28456755       1.26013954       1.63707341       1.12920289       0.12966164
N        4.91171657       0.90992083       9.49482304       0.47063638       0.96780970      -0.57086368       0.02522877       0.45818878      -0.31355773
N       14.04385003      12.71770085       6.91703432       0.48521529       0.49015995       0.22936476      -0.52270605      -0.66388974       0.23777412
N        2.40557315       8.60759862       8.94768225      -2.48004015      -0.76703008       0.30151306       0.02785910       0.10174321       0.56306533
N       14.91275659       6.82207289       6.26190662      -1.25311344       0.07259678      -0.34444342      -0.84376375      -0.06534563      -0.41023247
Pb       0.07256802       2.77928614       6.28581891      -0.10100283       0.08785865       0.09692215      -1.82538361      -0.98445069       0.03770813
Pb      18.39221038      10.55415068       9.51714161       0.01367523       0.09973541      -0.07322523      -3.45369453      -1.15856821       0.51511833
Pb       7.95775054       8.69707398       6.58074518      -0.01130293      -0.25339540       0.06565334      -1.95116613      -2.00908396       0.72847591
Pb      10.59932082       4.97915165       9.07556831      -0.28620713      -0.26525615      -0.04958379      -0.07619331      -1.40361497      -1.17140350
I       39.35995600       4.00111967       9.99048068       0.14990437      -0.06415245       0.10592125       0.07129473      -1.27768941      -0.93651603
I       39.11915730       8.00368566       7.34378056      -0.04229070       0.18232735      -0.01420660       0.80873063      -0.41132326       2.24054441
I        9.21080707      10.38137708       8.99900227      -0.17904456       0.17853558      -0.05652856       1.28314357       0.38634925      -0.34394189
I        9.18485797       2.89364127       6.82972413       0.18293812       0.03679536       0.03538740       0.00408311       1.69532262       0.17033978
I       17.33113551       1.21274068       6.67615517      -0.07107371      -0.03855407       0.04387625      -1.01001436       2.79356062      -2.62828556
I        1.07325631      12.34903471       8.58406917       0.18995437       0.09845032      -0.10950114       0.59230458       1.17626753       0.13404621
I       10.93660361       6.98995626       6.50492774       0.25551239       0.20401633       0.08141012      -0.98477299      -1.46899746       2.27694510
I        7.44791282       6.49853669       8.96707361      -0.01489267      -0.19854418       0.03051632      -0.97417643      -0.33413466       1.60836096
I        3.08888356       3.62073646       6.21313821      -0.05361447       0.28011994      -0.11738218       0.56625952      -0.33894032      -2.71293464
I       15.46745654       9.78360165       9.19755858      -0.10439863      -0.22213273      -0.07407748       0.80438470      -0.59187078       2.81699144
I        4.97029925       9.79422349       6.58706951       0.16224724       0.00818905       0.02999363       0.39848428       2.72122314       1.54895315
I       13.29583219       3.18376309       9.38727866      -0.09006107       0.52713479       0.07692568      -0.88667514       2.94745167       0.56319982
H        6.90543694       1.18214772      13.83156690      -0.24716218      -0.41031979       0.40340403       0.29503514       0.01819709      -0.25922407
H       11.92346214      12.71514603      11.63325207      -1.26078681       0.34061855      -0.37532178      -0.06487040       0.00266733      -0.02481286
H        1.27357335       6.40056886      13.60754063      -0.28082221      -0.34219303       0.21622450       0.20234640       0.06248067       0.02168525
H       17.11147784       6.74773558      11.67469280      -0.11786510      -0.24505600       0.28627510       0.31735449      -0.08091689       0.03136466
H        6.56567594       2.85299681      17.12572948       0.16658475      -0.02814561      -0.26853065       0.22054792       0.00845970       0.13727436
H       11.48590433      11.02810797      10.03581691      -1.51922016      -0.42044472      -0.89857996      -0.01804096       0.19027028       0.02944479
H        2.62830313       6.02714430      17.17535023      -0.05195129      -0.23825601      -0.02201145       0.26967416       0.07282195       0.07326451
H       15.43183612       7.42826344       9.99893670       0.21981470      -0.03676285       0.17066943       0.11047918       0.38440728       0.21848248
H        3.69239971       1.25376076      13.29188683       0.48358972      -0.09799970      -0.07621458       0.26063992       0.21768068       0.04496351
H       13.11698050      10.38105560       9.98270488       0.51930031       0.20002844       0.11101643       0.02303481      -0.07998403      -0.16806010
H        3.94725213       6.94834088      18.00847561      -0.34716139       0.55601833       0.36221285      -0.02949657      -0.02192287      -0.02487331
H       14.42740821       5.99692323      10.31619284      -0.07752100       0.00176045      -0.08586446      -0.04632889      -0.06561011      -0.12122408
H        5.03582085       2.63766874      11.53066621      -0.18813942       0.32521786       0.25337312      -0.05673507       0.00477754       0.02251595
H       14.73857429      11.78216219      11.81317647      -1.27646445       0.48640797      -0.27998429      -0.09927932       0.00727900      -0.04204246
H        3.96108886       7.45178490      12.88617880       0.85881003      -0.19783325      -0.32456727       0.13450277      -0.12820182      -0.02504301
H       15.14929959       4.50141923      12.39122812      -0.54552524      -0.38698500       0.02278978       0.30059834       0.04769904       0.13344981
H        6.88761633       2.62326934      12.04260400       0.02692980       0.15893784      -0.07279673       0.02075432       0.06893620       0.18510785
H       13.80583998      13.09187565      12.64780213      -0.17232504      -1.06357619      -0.85397803      -0.02345956       0.33320335       0.19819971
H        3.28519954       5.64327185      12.80119758       0.34429796      -0.05690123      -0.27899346       0.24515716       0.04191567       0.15285201
H       14.95829941       7.07662038      15.25125318       0.23389634       1.06174189      -0.20869684      -0.13198493       0.06775427       0.13538552
C        5.85950752       1.48986478      13.33430363       0.03522584      -0.00923014       0.26942185      -0.46512334      -0.48115769      -0.33462357
C       12.70555076      12.02852338      11.28214051       0.30215034      -0.09506948       0.22208435      -0.08829505      -1.00603364      -0.56949921
C        2.11366821       7.13323038      13.55039187      -1.08425117       0.47658713      -0.48040456       0.00185273       0.02962529      -0.51037606
C       16.17160717       6.14190493      11.54461390      -0.59020568      -1.16210664      -0.30297771      -0.28587278      -0.04842817       0.65578543
N        4.70629688       0.98880051      13.76283397      -0.28524339       1.69868105      -0.81655432      -0.16214409      -0.96823842       0.20813506
N       12.44204338      11.10137558      10.33963422       0.95870121       0.28562247       0.87742926       0.35655429      -0.21416290      -0.00403234
N        2.85187450       6.85238185      17.78263026       0.92061222      -0.45120607      -0.53417906       0.27274096       0.05046491       0.87003553
N       15.30396227       6.52380209      10.49856469       0.37036173      -0.64189458       0.91134181       0.68562925      -0.08022926      -0.48380307
N        5.92145771       2.39811219      12.33295017       0.19616257      -0.13162714      -0.51921712      -0.57010586       0.82818772       0.19759314
N       13.81524846      12.28886929      11.91170795       2.41487512       0.28091333       1.28732582      -0.69642098       0.06579891      -0.12881876
N        3.22278214       6.68244090      13.04914187       0.24123739      -0.16307350       0.17221274       0.79325457       0.85554025       0.24954101
N       16.02287077       5.01248880      12.30230849      -0.62956792       3.02978017      -1.66552828      -0.12423601      -0.16834107       0.20270734
Pb       0.03667434       2.67511675      11.16808787      -0.03639950       0.00689845      -0.66670018       4.05445849      -0.87558922       0.66061558
Pb      17.97019421      10.40025797      14.24737799       0.40419450       0.13574849       0.19518328       1.57821707      -1.20820905      -1.44494961
Pb       8.09522757       8.44744529      11.43609244      -0.23399005       0.21731919       0.04361891      -0.36412580      -2.97500312      -1.30910724
Pb      10.34523420       5.07905481      13.84170917      -0.26958493      -0.28749699       0.03240455       4.10860730       1.21413983      -0.79690543
I       39.10739821       3.69659286      14.54899637      -0.03744972       0.42130549       0.18859894      -2.08015380      -2.01200710       0.27641058
I       39.04737987       7.82499323      11.97536332       0.38601913       0.07932085       0.12653811       2.36906174       3.82893674      -1.06124597
I        8.86386191      10.49086636      13.99980605       0.09956957       0.07687330      -0.26367660       0.70980515       2.14932095      -0.21570707
I        9.53144368       2.99286134      11.36832354      -0.21715300       0.10170290       0.17009737       1.49653116      -2.16370674      -0.97904622
I       16.80880804       1.10623851      11.58375213       0.17218672      -0.05865585      -0.21725151       1.64602539       0.06473930      -0.49349390
I        1.11622829      12.22907374      13.32356075      -0.00762817       0.35818108      -0.03554245       3.09508970      -0.83281465      -2.41110881
I       11.15729400       7.17269772      11.47248657       0.19379658      -0.08606908      -0.01706769      -1.10228357       0.78565450       4.26513787
I        7.14841210       6.41461391      13.75201422       0.02050331      -0.00292035      -0.00730870      -0.44030832       1.46162906       2.46425176
I        3.15922415       3.58121271      10.65209469      -0.25281055       0.29902610       0.27281183       0.40964196      -0.96864159      -0.46299596
I       15.24444927       9.32657281      14.15937001      -0.35198267       0.05864160      -0.13991177       0.89094249      -0.00809674       0.02176118
I        5.12437776       9.75172955      11.25719021       0.08621816      -0.16798631       0.14666604       1.11527842      -1.92394292       1.50430045
I       13.07254075       3.69146945      14.08881308       0.06503455       0.06509469       0.08387099      -2.66764994       3.33191676      -0.64933540
H        6.50059739       0.88771139      18.41028497       0.10973575       0.33861051      -0.03294426       0.27901938      -0.13306239       0.11633430
H       11.39683368      12.93662336      16.25218525       0.13479710      -0.16755310       0.52559124      -0.04175392       0.07178010       0.04743914
H        0.83387727       7.19273521      17.89944581      -1.60457747      -1.06431937      -0.26463989       0.08471499       0.15362120      -0.19983020
H       16.90796385       6.36217982      16.29252710       0.30976569      -0.05762306       0.15829395       0.00904983       0.10409620       0.06373888
H        4.73404768       0.30784874      14.55578664       0.24651100      -1.47147495       0.63476777       0.39097843       0.21333392      -0.07855830
H       11.07953942      10.70369351      15.34143152       0.63769774       0.41859297       0.55432385       0.07992076      -0.11493038       0.13591656
H        0.93141994       8.88561586      14.14186415       0.34715127      -0.85951590      -0.41271616      -0.07582486       0.12677417      -0.03540254
H       16.87428331       4.45340514      17.50948474      -0.05729175      -0.72007654       0.58848424      -0.15442299       0.18010498       0.02800436
H        4.77130791       2.97389472      16.95488803       0.00063697      -0.11973211       0.26621770      -0.01875994      -0.00370365       0.29665288
H       12.75783622      10.30399141      15.71607903      -0.06775375      -0.22191039      -0.06278875       0.02852087      -0.04427392      -0.15685684
H        2.53513057       9.41996922      13.89572768      -0.20528056      -1.25567772      -0.67680520       0.22244895      -0.11470075       0.20873957
H       15.05167976       4.30108440      17.32086195      -0.01121178      -0.85481040       0.55964593       0.11075896       0.03682821      -0.10910544
H        3.59943559       1.48523038      18.47642820      -0.13541923      -0.60341734       0.37601067       0.05767475       0.06145176      -0.10227257
H       14.10036171      11.89497998      17.04713239       0.57593875      -0.10193181      -0.12859854      -0.20791812      -0.16943030      -0.18897179
H        2.65075197       8.87431927      19.64301024       0.88369743       0.44215570      -0.05537193      -0.10489342       0.15595744      -0.00115320
H       14.01852134       5.83519522      16.02542209      -0.16290322      -0.04968545      -0.20484961       0.22833038      -0.16144980      -0.10955874
H        4.49728923       0.12675725      19.25009188      -0.30384692      -1.04245594       0.53124871       0.10609682       0.07832120       0.13046367
H       13.31217740      13.58367763      17.23471359       0.53219680      -1.28223550      -0.56823233      -0.07707932       0.13040300      -0.01430474
H        0.86476852       8.81740806      19.54176620       1.00051186      -0.41067360      -0.79328697       0.37458578      -0.17941410      -0.00992660
H       16.75686452       4.88815677      13.02710454       1.26359352      -0.68411446       0.73113385       0.21802613      -0.02401944       0.08724912
C        5.57936199       1.44758166      18.17493892      -0.29678357      -0.11154402      -0.00783696      -0.24832988      -0.00628615      -1.10448322
C       12.21089397      12.14985631      16.38837013      -2.24624049       0.10500725      -2.56793686       0.63843615       0.40230734      -0.49618866
C        1.80896579       7.51472613      18.25020456       0.55487730       1.90503545       0.98932402      -0.48830565       0.23007652      -0.32545534
C       15.97834926       5.81209680      16.46307523       0.68781000       1.20198265      -1.25568917       0.62979687      -0.31820894      -0.00265148
N        5.61988382       2.50584972      17.37131406       0.21949605      -0.52442315       0.35916952       0.25240184       0.98913073       0.19411103
N       11.97827143      10.96456206      15.81425390      -0.06412229      -1.06555050      -0.42388476       0.66833654       0.36410441       0.52608935
N        1.86761761       8.49031861      13.84311555      -0.00294078       2.28643770       1.60898153       0.38609307       0.07527350       0.07610030
N       15.96912627       4.71297388      17.12060296       0.54923985      -0.29515542       0.62246853       1.22245687      -0.02455758       0.06258976
N        4.46753078       0.96139282      18.70513128       0.30300443       2.12292536      -1.23537116       0.16956972      -0.93641820       0.08444835
N       13.34357271      12.59271315      16.80474343       0.69984442       2.08914968       2.53493485      -0.02499865      -1.08942066      -0.02722881
N        1.79154349       8.54766449      19.09548311      -1.12056086      -0.75922884       0.25602936      -0.76260010      -0.13756609       0.22793482
N       14.92633411       6.29380214      15.89356019      -1.62368749      -0.36317255      -0.11611077      -0.05169772      -0.23938403       1.00900081
Pb      -0.28751762       2.54481297      15.72823278       0.07035683       0.00579348       0.44360246       0.60623185       0.34275192       0.28057253
Pb      17.74134580      10.70413491      18.75642908       0.25749797      -0.01834603      -0.24885734      -2.59932243      -0.62531137      -0.18977210
Pb       7.56233675       8.64833341      16.19342472       0.18811543      -0.07760784      -0.16725795       3.53288624      -0.58535343       2.28521120
Pb       9.99288420       4.83883821      18.41657310       0.13859069      -0.13310046       0.16621511      -4.77420812       1.57410090      -0.58097898
I       38.87689779       3.88672356      19.18066795       0.24482130       0.16389658       0.21470577       1.48500499       1.56178255       1.62461088
I       38.93746318       8.04433739      16.85597438       0.14356810      -0.09758695       0.00838644      -1.49403447      -0.30468098      -2.45093398
I        8.40744528      10.81527816      18.57893608       0.32503810      -0.04243230      -0.09803403      -0.59480942       0.78603567       0.09768965
I        9.14168042       2.82514388      16.13060969      -0.01198518       0.09721223      -0.20536879       1.09847126       0.63233242      -1.48010437
I       16.87208713       0.93578017      16.53391635      -0.07450634       0.09464824      -0.09234858       2.41716906       3.15046219       1.85862020
I        0.82528380      12.32883916      17.80521281      -0.02043362       0.08772825       0.33258739      -0.47167581      -0.18403231      -0.87630420
I       10.80292150       7.00391825      16.40154854       0.22885147       0.27647780      -0.19923709       0.76196929      -2.32918589      -2.52368491
I        7.11500369       6.20753786      18.28459869      -0.33479111       0.08334330       0.21099045      -0.58165630      -2.96736015      -0.04848604
I        2.62824544       3.74239276      16.05047485       0.00457170       0.09574542      -0.26659390       0.58963759       0.95441751       0.51719195
I       14.78945852       9.50322495      18.57292328       0.17335808       0.27698726      -0.16430152      -1.86105833       0.52268582      -0.14455873