768
Lattice="32.0609120611585 -0.5112882221814271 -0.5475189371990378 0.2896562838185469 31.11650681404145 -0.5358671673453327 0.3216333527679892 0.2519783857508381 17.761452272036312" Properties=species:S:1:pos:R:3:forces:R:3:momenta:R:3 pbc="T T T"
H        2.13242387       3.26992250       3.00913166       0.12434739       0.72844568      -1.33108935       0.05182915       0.02760605       0.25876634
H        2.10450044       3.68361767       5.14230208      -0.34286869       1.04619950       0.69996655       0.04051857      -0.21871231       0.03932989
H        2.30665849       2.06190123       5.70413339       0.06066795       0.00847875      -0.01118813       0.02351237       0.28713245      -0.09463731
H        2.71950860       0.44019513       3.87857823      -0.05503265       0.26756060      -0.16103554       0.07745506      -0.10251712       0.05326333
H        2.54984649       1.02393119       2.22078989       0.09618692       0.12719259       0.01120859       0.10473934      -0.10996939      -0.11799328
H        6.66695472       3.59226954      16.00565918      -0.27498295       0.71227779       0.40106850       0.12368058       0.06340777       0.05676133
H        6.29335310       2.90746101       0.54614155       0.30245646      -0.72100230       0.15304180       0.15344571      -0.05884698      -0.07525793
H        6.05193331       4.53074298       1.04831441       0.02371796       0.09878022      -0.25159926      -0.10133528       0.00181340       0.02517187
H        6.01896932       6.52788194      16.84655776       0.09488920      -0.27784900       0.52691351       0.14508035      -0.07241891       0.21189445
H        6.10279007       5.74773771      15.28499223       0.02545658       0.07274035      -0.08180856       0.17320300       0.07577019      -0.10156887
C        2.33099806       2.45125335       3.65761425      -0.07782801      -1.75112708       0.93450466      -0.26326867       0.40171576      -0.21782481
C        6.45536371       4.42923420      16.74340172       0.24035255       1.16926976       0.43011301       0.31027437      -0.17251075       0.03788574
N        2.20578703       2.72014660       4.92858853       0.14901935      -0.04458173       0.24072967       0.81661936      -0.20786808      -0.66657225
N        2.60542723       1.23898279       3.22974327      -0.04192991      -0.12952956      -0.37517057       0.48815545      -0.73404148       0.00675010
N        6.25632321       3.87939275       0.26620887      -0.43342329       0.48707639      -0.27104497      -0.49787222      -0.48858631      -0.02588618
N        6.20188653       5.66412234      16.30277468      -0.02258151      -1.39145110      -0.70699147       0.52020304      -0.13764666      -0.14892110
Pb       5.09776686      30.94485809      16.32575279      -0.14370069       0.06659020       0.34244239       1.43604956      -0.34518118      -0.49003027
Pb       1.04215006      30.93523368      16.65390002      -0.05816194      -0.02910993       0.19387365      -2.36779661      -1.42493276       0.37049344
I        6.55219247       0.58832572       1.56572265      -0.17196478      -0.25798381      -0.02374013      -0.99629304      -1.02104412       1.69658182
I        1.17995212       5.81207940       1.48674379       0.11630005      -0.27034427      -0.14069829       1.24117087       0.11113882       0.67743600
I        6.73607357       0.99461496       5.93252657      -0.07286339      -0.17531520       0.23083543      -1.07327494       2.44540358      -0.02999897
I        1.40038916       6.39659440       5.98773439       0.28672564      -0.21723808      -0.21213907       1.68108717       1.15378500      -0.63581213
I        5.56199236       4.84729486       4.03224779      -0.01228538      -0.39064882      -0.25919731       0.26565411       0.69037369      -0.56850492
I        2.71158923       2.43815557      17.39534764       0.20830266      -0.30474248      -0.07328688      -1.59799899       2.90640433       0.08072891
H        1.85588492      10.94912446      -0.02064111      -0.30684915       0.10936113      -0.00926756       0.01627215       0.01139120      -0.15994164
H        0.92023476       8.82349321       0.45777430       0.30924039      -0.10794280      -0.03211239      -0.07474276      -0.20390209       0.06764728
H        1.55652282       8.52034064      16.53343450      -0.23195387      -0.29619009      -0.06638317      -0.08837855       0.02165471       0.05553828
H        2.18631588      10.41033609      14.83343367       0.05548888       0.21443601       0.40897586       0.07948742      -0.09654821      -0.04851098
H        2.47088912      11.99581744      15.55315747       0.18731393      -0.87880759       0.31178711      -0.07220973       0.06957792      -0.04385502
H        5.96641928      11.21340883       4.29613129      -0.02375791      -0.23949007       0.14877281      -0.00496445      -0.15583362      -0.19269691
H        5.85950987      13.51190690       4.87969565       0.16043520       0.02485553       0.60946539      -0.07373241       0.12431801       0.04774398
H        5.62567673      14.04354811       3.22838826       0.06041200       0.23353466       0.05026532      -0.06685075      -0.06844444      -0.01279253
H        5.32690268      12.17499392       1.47350588       0.19930591       0.36164997      -0.14055394       0.05746085      -0.02767712       0.12402792
H       15.38272489      12.70369359       4.91183730      -0.16408120       0.43175213       0.15612696      -0.12444224      -0.06538357       0.02823660
C        2.01498601      10.49892972      16.90271709       0.09435551       0.04776103       1.25126104      -0.37208413       0.61364551      -0.00373234
C        5.77681728      11.99445677       3.52382532       0.05807328       0.30110658       0.51152231       0.51355683       0.24074828      -0.62443941
N        1.57415409       9.27118214      17.23127281       0.04406835       0.28556856      -0.08692356      -0.53981490      -0.19629540      -0.16171380
N        2.35995636      10.96127659      15.71090761      -0.11855930       0.60368095      -1.79650059       0.23059060       0.01798111       0.75503103
N        5.72120862      13.27435553       3.91030950      -0.08428905       0.25351861      -0.86535097      -0.15120239      -0.03546312       0.43625618
N        5.59708952      11.57078242       2.30586871      -0.26419505      -1.06037920      -0.38570014       0.41315792       0.37642104       0.39451923
Pb       3.48125743       7.11687401       3.42115639      -0.17142281       0.26781038       0.04913256      -0.25300336       1.03211192      -2.32686498
Pb      31.55595548       6.78534126       3.05145184      -0.15302105       0.07581563       0.25566551      -2.17347551      -0.53590443      -1.75710669
I        5.21723570       8.79521246       5.41086988       0.17652527       0.08702929       0.19438041      -0.35747488      -0.36156688       1.05850689
I        2.68007198      14.14124315       5.50940212      -0.01291321       0.14348698       0.12617395       1.42114239      -0.88936067       1.08687770
I        5.64270878       8.07271252       1.06707240      -0.05286502      -0.01882562       0.16467482       0.39339852       0.49351915      -1.13351609
I        2.60670658      13.66624664       1.19892345       0.30980455       0.00253247      -0.25806516       2.81036474      -0.05912597       1.18043749
I        6.79869231      12.61139099      16.44051680      -0.19621230       0.13040177       0.06885941       0.59237014       0.20375815      -1.19846345
I        1.41256563       9.77183963       3.16078087       0.16299107       0.11154558       0.05915723       1.89325003       0.52483603      -2.73370021
H        9.78491481       3.10710298       2.88759870       0.13380491      -0.48676299      -0.74137076       0.12989426      -0.07707831       0.09006289
H        9.99971364       3.71359059       5.06732301      -0.03586520       0.59474731      -0.05888752      -0.06635978      -0.05753309      -0.08231195
H       10.63645115       2.14367691       5.66453659      -0.09854111       0.63186285      -0.73286913      -0.09922549      -0.00015058      -0.17800581
H       11.04624885       0.37208538       3.98517076      -0.31542230      -0.11404537      -0.14270162       0.03600695       0.10259495      -0.04411825
H       10.48237229       0.87486882       2.25350972       0.05240695      -0.33343923       0.28587243       0.05183763       0.06412423       0.10723328
H       13.84656501       5.35657581       0.48073594      -0.01449494       0.37973016       0.61528186      -0.07988826       0.18155573       0.07663658
H       13.85602158       6.64792348      16.10361285      -0.13208886       1.70114272      -0.02763976      -0.14673978      -0.13082070      -0.00570372
H       13.87664268       5.16108912      15.17111891       0.09113856       0.61364728       0.90525097       0.11209915      -0.17166524      -0.11114558
H       14.32124473       2.96356781      16.67903378       0.04395200      -0.36030462      -0.08323979      -0.03113321       0.01017373      -0.02855299
H       14.15966384       2.99883726       0.68216585      -0.11047705      -0.16902075       0.97833883       0.01635660       0.02884036       0.03556674
C       10.21391608       2.31020877       3.59312615      -0.33678701       0.59513778       1.13189655       0.04077497       0.32452934      -0.47631440
C       14.14811545       4.96853538      17.34229209       0.03999105       0.07473307      -0.91806279      -0.86036551      -0.16896133       0.34936221
N       10.29597139       2.75594429       4.84125055       0.21116083      -1.60968666       1.19584859      -0.08904876       0.98553653       0.04959217
N       10.55106267       1.07356545       3.26632708       0.33838486       0.62983972      -0.83806897      -0.14617546      -0.31977934       0.14395255
N       14.00394067       5.65418224      16.15670118       0.07445388      -3.10919588      -0.23428391      -0.18987521       0.24739071      -0.08906921
N       13.94317341       3.37017158      -0.25832795       0.03435591       0.78697997      -1.19960941       0.23370849       0.44906271      -0.02507431
Pb      13.00378242      30.58586842      16.51155621       0.34444929      -0.08488902      -0.36663582       0.33035003       2.17299878       2.29271340
Pb       9.09463554      30.56375581      16.60702482      -0.21373151       0.20282543      -0.50287163      -1.21691963       1.29739276      -0.84943184
I       14.45946786       0.10584333       1.68539154       0.06195948      -0.05866152      -0.18672232      -0.04672244      -0.46992255      -0.36446071
I        9.60063552       5.84828139       1.63177085      -0.24260043      -0.35522670      -0.29084272      -0.37662332       0.00430208       2.36242420
I       14.63208489       0.91444336       6.13117870      -0.13942753       0.12344417      -0.16681283      -1.19168751      -0.70111019      -0.84991491
I        9.60710849       6.03420342       5.94219394      -0.09107178       0.40633764       0.14385134      -0.20329520      -0.93362138       1.75612271
I       13.44221857       4.51920152       3.57458523      -0.02246742      -0.08742727       0.00391426      -3.30936267      -2.28475297      -0.01920447
I       10.82849994       1.95402832      17.48233109      -0.07229172       0.25535996      -0.15974560       0.90104792       0.15876411       0.17500960
H        9.51327519      11.04927397      -0.14347499       0.28540627      -0.34327131      -0.06220886      -0.24008912       0.07744562      -0.02110233
H       10.12484147      11.66796129      15.35992903      -0.04588911      -0.29234109       0.15873780       0.13173280      -0.01251626       0.00858321
H        9.93268599      10.00288569      14.87374226       0.18194893       0.53923603       1.00922129      -0.02644711      -0.08429678      -0.14372394
H        9.72189331       8.36079319      16.85667762       0.08798930       0.52926735       0.48457209       0.03469861      -0.08899833      -0.07487193
H        9.33072769       8.81800442       0.70025428       0.01723818       0.16407099       0.31007316       0.24546552       0.03803512      -0.05987403
H       14.48652401      10.82377243       3.81523608      -0.11767051      -0.25737344       0.02048648      -0.06164659      -0.23552688      -0.12773487
H       13.78205071      10.80103608       1.52787342       0.24585537       1.65386890      -0.03406717      -0.01708726      -0.03689985       0.01982863
H       14.15856079      12.63112196       1.30862452      -0.03154504      -0.78519619       0.40237370      -0.00479743       0.01098445       0.04272798
H       15.11939444      13.72354563       3.42199040       0.07109456       1.21206807      -0.52839624      -0.01005827      -0.06080447      -0.26223518
H        5.67265987      10.52606212       2.14796904      -0.01103399       0.27553693      -0.07683785       0.18160825       0.04175238      -0.13805121
C        9.88180252      10.41698595      16.93677501      -0.61218860      -0.08340441       0.93104616       0.30286688      -0.06083775      -0.38248136
C       14.52844969      11.76469294       3.23447346       0.23452140       0.25786372      -0.64603398       0.03273043       0.30322056       0.77841449
N        9.99179049      10.68742764      15.67059945       0.13893825      -0.03998659      -1.89880697       0.46122959       0.77176602      -0.04238020
N        9.40163457       8.96152629      -0.30141140       0.06125853      -0.70294650      -1.24474077      -0.41084461      -0.18523413      -0.53134475
N       14.10394897      11.76057971       1.92117937      -0.32056231      -1.24879046       0.16217567      -0.07404684      -0.14125801      -0.53741986
N       15.02946119      12.84579608       3.89451026       0.02655236      -1.30777187       0.68336774       0.39628958       0.66558387      -0.10255583
Pb      11.61525036       7.17785088       3.54606071       0.11828694       0.01705284       0.12664153       1.52353500      -0.27204807       2.84233841
Pb       7.63320989       7.35612827       3.62936888      -0.15076928      -0.10838055       0.02150206       3.12600029      -0.16356133       1.77011692
I       13.59554877       8.66239561       5.54196866       0.07735724       0.11295340       0.08659176       1.33715397       0.63304628       1.29084610
I       10.69234295      13.90899459       5.38775877       0.06918237       0.07592650       0.32761099       2.15232500      -0.94244172       0.24042924
I       13.45052281       8.15259911       1.11436674      -0.05618998       0.21482094      -0.15773160      -1.42486688       0.35721421       0.69833603
I       10.59552733      13.36696887       0.96173439      -0.03681653      -0.25162141       0.37816574      -0.08737741       0.86952792       0.89464935
I       14.99438839      12.50334512      16.40662693       0.04682792       0.03541270      -0.17309145       0.12054477      -0.59269235      -0.60071918
I        9.52720336       9.77612517       3.20333637       0.06072294       0.19797704       0.11838702      -0.13799899      -0.79328529      -0.98432847
H        2.29324055       3.39591169      11.88985780       0.12434739       0.72844568      -1.33108935       0.05182915       0.02760605       0.25876634
H        2.26531712       3.80960686      14.02302822      -0.34286869       1.04619950       0.69996655       0.04051857      -0.21871231       0.03932989
H        2.46747517       2.18789042      14.58485953       0.06066795       0.00847875      -0.01118813       0.02351237       0.28713245      -0.09463731
H        2.88032528       0.56618432      12.75930437      -0.05503265       0.26756060      -0.16103554       0.07745506      -0.10251712       0.05326333
H        2.71066317       1.14992038      11.10151603       0.09618692       0.12719259       0.01120859       0.10473934      -0.10996939      -0.11799328
H        6.50613805       3.46628034       7.12493305      -0.27498295       0.71227779       0.40106850       0.12368058       0.06340777       0.05676133
H        6.45416978       3.03345020       9.42686769       0.30245646      -0.72100230       0.15304180       0.15344571      -0.05884698      -0.07525793
H        6.21274999       4.65673217       9.92904055       0.02371796       0.09878022      -0.25159926      -0.10133528       0.00181340       0.02517187
H        5.85815265       6.40189274       7.96583163       0.09488920      -0.27784900       0.52691351       0.14508035      -0.07241891       0.21189445
H        5.94197340       5.62174851       6.40426610       0.02545658       0.07274035      -0.08180856       0.17320300       0.07577019      -0.10156887
C        2.49181474       2.57724254      12.53834039      -0.07782801      -1.75112708       0.93450466      -0.26326867       0.40171576      -0.21782481
C        6.29454704       4.30324500       7.86267559       0.24035255       1.16926976       0.43011301       0.31027437      -0.17251075       0.03788574
N        2.36660371       2.84613579      13.80931467       0.14901935      -0.04458173       0.24072967       0.81661936      -0.20786808      -0.66657225
N        2.76624391       1.36497198      12.11046941      -0.04192991      -0.12952956      -0.37517057       0.48815545      -0.73404148       0.00675010
N        6.41713989       4.00538194       9.14693501      -0.43342329       0.48707639      -0.27104497      -0.49787222      -0.48858631      -0.02588618
N        6.04106986       5.53813314       7.42204855      -0.02258151      -1.39145110      -0.70699147       0.52020304      -0.13764666      -0.14892110
Pb       4.93695018      30.81886890       7.44502666      -0.14370069       0.06659020       0.34244239       1.43604956      -0.34518118      -0.49003027
Pb       0.88133338      30.80924449       7.77317389      -0.05816194      -0.02910993       0.19387365      -2.36779661      -1.42493276       0.37049344
I        6.71300915       0.71431491      10.44644879      -0.17196478      -0.25798381      -0.02374013      -0.99629304      -1.02104412       1.69658182
I        1.34076880       5.93806859      10.36746993       0.11630005      -0.27034427      -0.14069829       1.24117087       0.11113882       0.67743600
I        6.89689025       1.12060415      14.81325271      -0.07286339      -0.17531520       0.23083543      -1.07327494       2.44540358      -0.02999897
I        1.56120584       6.52258359      14.86846053       0.28672564      -0.21723808      -0.21213907       1.68108717       1.15378500      -0.63581213
I        5.72280904       4.97328405      12.91297393      -0.01228538      -0.39064882      -0.25919731       0.26565411       0.69037369      -0.56850492
I        2.55077256       2.31216637       8.51462151       0.20830266      -0.30474248      -0.07328688      -1.59799899       2.90640433       0.08072891
H        2.01670160      11.07511365       8.86008503      -0.30684915       0.10936113      -0.00926756       0.01627215       0.01139120      -0.15994164
H        1.08105144       8.94948240       9.33850044       0.30924039      -0.10794280      -0.03211239      -0.07474276      -0.20390209       0.06764728
H        1.39570615       8.39435144       7.65270837      -0.23195387      -0.29619009      -0.06638317      -0.08837855       0.02165471       0.05553828
H        2.02549921      10.28434689       5.95270754       0.05548888       0.21443601       0.40897586       0.07948742      -0.09654821      -0.04851098
H        2.31007245      11.86982824       6.67243134       0.18731393      -0.87880759       0.31178711      -0.07220973       0.06957792      -0.04385502
H        6.12723596      11.33939802      13.17685743      -0.02375791      -0.23949007       0.14877281      -0.00496445      -0.15583362      -0.19269691
H        6.02032655      13.63789609      13.76042179       0.16043520       0.02485553       0.60946539      -0.07373241       0.12431801       0.04774398
H        5.78649341      14.16953730      12.10911440       0.06041200       0.23353466       0.05026532      -0.06685075      -0.06844444      -0.01279253
H        5.48771936      12.30098311      10.35423202       0.19930591       0.36164997      -0.14055394       0.05746085      -0.02767712       0.12402792
H       15.54354157      12.82968278      13.79256344      -0.16408120       0.43175213       0.15612696      -0.12444224      -0.06538357       0.02823660
C        1.85416934      10.37294052       8.02199096       0.09435551       0.04776103       1.25126104      -0.37208413       0.61364551      -0.00373234
C        5.93763396      12.12044596      12.40455146       0.05807328       0.30110658       0.51152231       0.51355683       0.24074828      -0.62443941
N        1.41333742       9.14519294       8.35054668       0.04406835       0.28556856      -0.08692356      -0.53981490      -0.19629540      -0.16171380
N        2.19913969      10.83528739       6.83018148      -0.11855930       0.60368095      -1.79650059       0.23059060       0.01798111       0.75503103
N        5.88202530      13.40034472      12.79103564      -0.08428905       0.25351861      -0.86535097      -0.15120239      -0.03546312       0.43625618
N        5.75790620      11.69677161      11.18659485      -0.26419505      -1.06037920      -0.38570014       0.41315792       0.37642104       0.39451923
Pb       3.64207411       7.24286320      12.30188253      -0.17142281       0.26781038       0.04913256      -0.25300336       1.03211192      -2.32686498
Pb      31.71677216       6.91133045      11.93217798      -0.15302105       0.07581563       0.25566551      -2.17347551      -0.53590443      -1.75710669
I        5.37805238       8.92120165      14.29159602       0.17652527       0.08702929       0.19438041      -0.35747488      -0.36156688       1.05850689
I        2.84088866      14.26723234      14.39012826      -0.01291321       0.14348698       0.12617395       1.42114239      -0.88936067       1.08687770
I        5.80352546       8.19870171       9.94779854      -0.05286502      -0.01882562       0.16467482       0.39339852       0.49351915      -1.13351609
I        2.76752326      13.79223583      10.07964959       0.30980455       0.00253247      -0.25806516       2.81036474      -0.05912597       1.18043749
I        6.63787564      12.48540179       7.55979067      -0.19621230       0.13040177       0.06885941       0.59237014       0.20375815      -1.19846345
I        1.57338231       9.89782882      12.04150701       0.16299107       0.11154558       0.05915723       1.89325003       0.52483603      -2.73370021
H        9.94573149       3.23309217      11.76832484       0.13380491      -0.48676299      -0.74137076       0.12989426      -0.07707831       0.09006289
H       10.16053032       3.83957978      13.94804915      -0.03586520       0.59474731      -0.05888752      -0.06635978      -0.05753309      -0.08231195
H       10.79726783       2.26966610      14.54526273      -0.09854111       0.63186285      -0.73286913      -0.09922549      -0.00015058      -0.17800581
H       11.20706553       0.49807457      12.86589690      -0.31542230      -0.11404537      -0.14270162       0.03600695       0.10259495      -0.04411825
H       10.64318897       1.00085801      11.13423586       0.05240695      -0.33343923       0.28587243       0.05183763       0.06412423       0.10723328
H       14.00738169       5.48256500       9.36146208      -0.01449494       0.37973016       0.61528186      -0.07988826       0.18155573       0.07663658
H       13.69520491       6.52193428       7.22288672      -0.13208886       1.70114272      -0.02763976      -0.14673978      -0.13082070      -0.00570372
H       13.71582601       5.03509992       6.29039278       0.09113856       0.61364728       0.90525097       0.11209915      -0.17166524      -0.11114558
H       14.16042806       2.83757861       7.79830765       0.04395200      -0.36030462      -0.08323979      -0.03113321       0.01017373      -0.02855299
H       14.32048052       3.12482645       9.56289199      -0.11047705      -0.16902075       0.97833883       0.01635660       0.02884036       0.03556674
C       10.37473276       2.43619796      12.47385229      -0.33678701       0.59513778       1.13189655       0.04077497       0.32452934      -0.47631440
C       13.98729878       4.84254618       8.46156596       0.03999105       0.07473307      -0.91806279      -0.86036551      -0.16896133       0.34936221
N       10.45678807       2.88193348      13.72197669       0.21116083      -1.60968666       1.19584859      -0.08904876       0.98553653       0.04959217
N       10.71187935       1.19955464      12.14705322       0.33838486       0.62983972      -0.83806897      -0.14617546      -0.31977934       0.14395255
N       13.84312400       5.52819304       7.27597505       0.07445388      -3.10919588      -0.23428391      -0.18987521       0.24739071      -0.08906921
N       14.10399009       3.49616077       8.62239819       0.03435591       0.78697997      -1.19960941       0.23370849       0.44906271      -0.02507431
Pb      12.84296574      30.45987923       7.63083008       0.34444929      -0.08488902      -0.36663582       0.33035003       2.17299878       2.29271340
Pb       8.93381886      30.43776662       7.72629869      -0.21373151       0.20282543      -0.50287163      -1.21691963       1.29739276      -0.84943184
I       14.62028454       0.23183252      10.56611768       0.06195948      -0.05866152      -0.18672232      -0.04672244      -0.46992255      -0.36446071
I        9.76145220       5.97427058      10.51249699      -0.24260043      -0.35522670      -0.29084272      -0.37662332       0.00430208       2.36242420
I       14.79290157       1.04043255      15.01190484      -0.13942753       0.12344417      -0.16681283      -1.19168751      -0.70111019      -0.84991491
I        9.76792517       6.16019261      14.82292008      -0.09107178       0.40633764       0.14385134      -0.20329520      -0.93362138       1.75612271
I       13.60303525       4.64519071      12.45531137      -0.02246742      -0.08742727       0.00391426      -3.30936267      -2.28475297      -0.01920447
I       10.66768327       1.82803912       8.60160496      -0.07229172       0.25535996      -0.15974560       0.90104792       0.15876411       0.17500960
H        9.67409187      11.17526316       8.73725115       0.28540627      -0.34327131      -0.06220886      -0.24008912       0.07744562      -0.02110233
H        9.96402480      11.54197209       6.47920290      -0.04588911      -0.29234109       0.15873780       0.13173280      -0.01251626       0.00858321
H        9.77186932       9.87689649       5.99301613       0.18194893       0.53923603       1.00922129      -0.02644711      -0.08429678      -0.14372394
H        9.56107664       8.23480399       7.97595149       0.08798930       0.52926735       0.48457209       0.03469861      -0.08899833      -0.07487193
H        9.49154437       8.94399361       9.58098042       0.01723818       0.16407099       0.31007316       0.24546552       0.03803512      -0.05987403
H       14.64734069      10.94976162      12.69596222      -0.11767051      -0.25737344       0.02048648      -0.06164659      -0.23552688      -0.12773487
H       13.94286739      10.92702527      10.40859956       0.24585537       1.65386890      -0.03406717      -0.01708726      -0.03689985       0.01982863
H       14.31937747      12.75711115      10.18935066      -0.03154504      -0.78519619       0.40237370      -0.00479743       0.01098445       0.04272798
H       15.28021112      13.84953482      12.30271654       0.07109456       1.21206807      -0.52839624      -0.01005827      -0.06080447      -0.26223518
H        5.83347655      10.65205131      11.02869518      -0.01103399       0.27553693      -0.07683785       0.18160825       0.04175238      -0.13805121
C        9.72098585      10.29099675       8.05604888      -0.61218860      -0.08340441       0.93104616       0.30286688      -0.06083775      -0.38248136
C       14.68926637      11.89068213      12.11519960       0.23452140       0.25786372      -0.64603398       0.03273043       0.30322056       0.77841449
N        9.83097382      10.56143844       6.78987332       0.13893825      -0.03998659      -1.89880697       0.46122959       0.77176602      -0.04238020
N        9.56245125       9.08751548       8.57931474       0.06125853      -0.70294650      -1.24474077      -0.41084461      -0.18523413      -0.53134475
N       14.26476565      11.88656890      10.80190551      -0.32056231      -1.24879046       0.16217567      -0.07404684      -0.14125801      -0.53741986
N       15.19027787      12.97178527      12.77523640       0.02655236      -1.30777187       0.68336774       0.39628958       0.66558387      -0.10255583
Pb      11.77606704       7.30384007      12.42678685       0.11828694       0.01705284       0.12664153       1.52353500      -0.27204807       2.84233841
Pb       7.79402657       7.48211746      12.51009502      -0.15076928      -0.10838055       0.02150206       3.12600029      -0.16356133       1.77011692
I       13.75636545       8.78838480      14.42269480       0.07735724       0.11295340       0.08659176       1.33715397       0.63304628       1.29084610
I       10.85315963      14.03498378      14.26848491       0.06918237       0.07592650       0.32761099       2.15232500      -0.94244172       0.24042924
I       13.61133949       8.27858830       9.99509288      -0.05618998       0.21482094      -0.15773160      -1.42486688       0.35721421       0.69833603
I       10.75634401      13.49295806       9.84246053      -0.03681653      -0.25162141       0.37816574      -0.08737741       0.86952792       0.89464935