768
Lattice="32.0609120611585 -0.5112882221814271 -0.5475189371990378 0.2896562838185469 31.11650681404145 -0.5358671673453327 0.3216333527679892 0.2519783857508381 17.761452272036312" Properties=species:S:1:pos:R:3:forces:R:3:momenta:R:3 pbc="T T T"
H        2.78620273       2.74062250       2.91537320      -0.22680296      -0.08651168       0.80350176       0.09047854      -0.14623426      -0.04368692
H        2.76879552       3.39542721       5.30977916      -0.09654533      -0.94568058      -0.44202616       0.12880335       0.01232606      -0.16754229
H        3.06283661       1.74847142       5.80358480       0.08176009      -0.36704321       0.41303140       0.11452487      -0.34953585      -0.00051413
H        3.59421047       0.06925306       4.01913969       0.01259399      -0.32685359       0.00626325      -0.21888568       0.05910462       0.03057174
H        3.42708790       0.64417404       2.34161653      -0.01265993       0.06793865       0.22329704       0.21318356       0.19599692      -0.05770883
H        7.63890746       3.00139194      16.78735397       0.04826126       0.22601103      -0.03462964       0.30120276       0.14992860       0.04423975
H        7.51214245       2.62292029       1.38424207      -0.07394725       0.42553585      -0.48257855      -0.00793748      -0.21774693       0.02077597
H        7.06535474       4.36573620       1.61803198       0.13089600      -1.11542104      -1.20648594       0.20589204       0.28117349      -0.02774790
H        7.03218920       5.94799928      17.16736295      -0.22164862       0.64671473       0.34612427       0.34061035      -0.14348228       0.07206000
H        6.95857554       4.90948740      15.68566449       0.02647081       0.40986384      -0.29927202      -0.10134667       0.01568534      -0.11435803
C        2.94879415       2.00591591       3.75297215       0.62079885       1.69959599       0.52460857      -0.96962973       0.39232446       0.33336110
C        7.48721303       3.95084041      17.38010497      -0.35546524      -2.52755484      -0.29259859       0.23263910      -0.05534314      -0.14355612
N        2.84784679       2.38193795       5.03150296      -0.11118509       0.92540452      -1.21416175      -0.52482691       0.49304682      -0.38594252
N        3.40005433       0.83451163       3.35477934      -0.24759759      -1.06530231      -0.16973030       0.01277983      -0.34649608      -0.44800450
N        7.29460819       3.55589184       0.92062590       0.20436330       0.97188974       2.47612830       0.06957929      -0.00968006       0.22654237
N        7.08430044       5.02417791      16.72173386       0.13548930       0.72454249      -0.68722979      -0.58057292       0.72087492       0.04847563
Pb       5.99407866      30.20210007      16.70592221      -0.28332434       0.40811976      -0.15198913       1.93542988      -1.90977054      -0.27784167
Pb       1.88818771      30.45607557      16.99138705       0.16137657      -0.07679038      -0.41354558      -0.74685856      -1.18873373       0.04818108
I        7.36674632      -0.08513961       2.00541557      -0.10832228       0.02968513      -0.30629749       1.87189477      -0.98056797      -0.40244713
I        2.71570825       5.16308628       1.64694509       0.08379720      -0.01662206       0.01051255       0.44586462      -0.41525444      -0.82696892
I        7.53898248       0.52361734       6.39073027       0.07474013      -0.05568165      -0.07222056       2.61268118      -0.90623256      -1.38880271
I        2.71428631       5.82226915       6.30725897       0.14895727      -0.03346273      -0.00926811      -1.44247814      -1.78553258      -0.53765320
I        6.62039889       3.90890143       4.31058920      -0.12028290       0.02894822       0.10352729       1.81529259      -3.13591152      -0.73678049
I        3.78684107       1.81434004      17.51148007      -0.14477031      -0.11617696       0.03524104       1.08644023      -0.66763529      -1.84803360
H        3.28407776      10.64191568       0.00706252      -0.23332718      -0.69115156      -0.34186694      -0.08991880       0.06919674      -0.15004140
H        3.28968353       8.53504636       0.89887912      -0.08169581      -0.55773811       0.96603604       0.01659289       0.12157453      -0.07059066
H        3.59480599       7.89569704      17.06452464      -0.16583720       0.70494557       0.81181817       0.04211498       0.03982714       0.00869214
H        3.47361988       9.74868198      14.99575950      -0.18512471      -0.43322838      -0.14859527      -0.12829496      -0.12774539      -0.14682707
H        3.40244370      11.40071326      15.59409320       0.07358965      -0.19210989      -0.09646839      -0.02542589       0.03750417      -0.02153763
H        8.08823696      10.77992178       4.30284274       0.00720031      -1.29887033       0.62080072       0.11475885      -0.07402244      -0.05171597
H        8.21434629      12.91621198       4.93171160       0.03835732       0.05021283       0.72722553      -0.00457775      -0.07392212       0.06804070
H        7.75202411      13.59316733       3.37079238       0.04361014       0.78303087      -0.74108933      -0.11686054      -0.02124230       0.23132371
H        6.94953718      11.90197706       1.56575799       0.14370166       0.13125906      -0.72157544      -0.06178760       0.11304662      -0.03910215
H       16.12204970      12.60349473       4.97674445      -0.08480766       0.24087279       0.35779565      -0.18357309       0.09252378       0.09909331
C        3.53400899      10.00728441      17.07767890      -0.14567922       0.40846185       0.25403405      -0.01004458      -0.18189242      -0.17915253
C        7.81534270      11.52835391       3.54413405      -0.26677980       0.90267381      -1.59448997      -0.12031439      -0.99254700       0.22685500
N        3.21848630       8.53397092      -0.11882936       0.49220140       0.55449627      -2.48833577       0.51947010      -0.12149189       0.01059109
N        3.43725827      10.37646633      15.79559971       0.18545021       0.03741074       0.75942793      -0.41965917      -0.91683570       0.39400075
N        7.97300905      12.76555889       3.95764893      -0.19993428      -0.82214606      -0.13179269       0.50296915      -0.05290851      -0.73978359
N        7.25921345      11.19523361       2.30475946       0.38596394      -1.16712536       2.39519686       0.14247209       0.79023127       0.34509748
Pb       4.72692468       6.49005925       3.81067194       0.04775897       0.08259777       0.17985697      -1.79903253       1.31700957       0.59585362
Pb       0.83115518       6.74066976       3.72520537      -0.10681757      -0.29872362       0.25708725      -1.39655810      -3.40195809       2.06788032
I        6.75495132       8.04789092       5.95958661      -0.06641531       0.07640804      -0.30108618       0.11646151       1.00910964       2.17413035
I        3.39153787      13.68320607       5.77651284       0.16964529       0.15562348       0.11149212      -1.71900631       0.70286010       0.07138536
I        6.70979204       7.36362250       1.45330328       0.26671696       0.18566355       0.24711323      -0.23633518      -1.30425962       0.03201909
I        3.39410511      13.11075156       1.25461762       0.15342757      -0.25333348       0.37977038       0.94254748      -0.07132271      -0.74275801
I        7.57583637      12.23636803      16.56004690       0.22895969      -0.36892702      -0.07086926       1.04527137      -1.22293128      -1.60588693
I        2.70816571       9.10607734       3.23199236       0.23158798       0.23408333       0.22958243       0.79628732      -0.66138904       1.74914744
H       11.65437133       2.54027079       3.16498314       0.12836543      -0.25109917      -0.47640914      -0.24662985      -0.06662954       0.24816960
H       11.79330056       2.87620910       5.39138596      -0.01102138      -0.59169653      -0.21916345       0.08315805       0.28646418       0.30986935
H       12.01438108       1.18503847       5.78317210      -0.20961213      -0.27986989       0.32570652       0.14537763      -0.07445994       0.10605746
H       11.93549409      30.59897932       3.05491250       0.08745510       0.15452685       0.11021303       0.08056317      -0.08430135      -0.08003167
H       11.75306956       0.46870840       2.05703799      -0.25119880      -0.00339855       0.90686811      -0.02845247      -0.10633237       0.22330354
H       15.44050478       4.80727936       0.12869831      -0.18040817       0.52262510       0.29754588       0.09991189      -0.02504398       0.05097707
H       15.50061879       5.59961299      15.62169138       0.02435448       0.49829800       0.13907252       0.06193071       0.11585782      -0.00722331
H       15.27100270       3.93572881      15.11871311       0.07266896      -0.39539791      -0.18834021       0.04966738       0.31296482       0.12601909
H       15.39270965       2.09584658      17.07167143      -0.12360397       0.71024110       0.53705437       0.13756924       0.11704487       0.10441427
H       15.17117009       2.64260354       0.91708656       0.12570556      -0.15510032       0.56690096       0.01339086       0.15717125       0.00263399
C       11.74160516       1.60104538       3.76148400      -0.43005136       1.40479799       0.39102489       0.06584896       0.52299926      -0.23003541
C       15.57824245       4.24471301      17.15814642       0.19088788      -1.16906337       0.38232543      -0.57343641      -0.44960110      -0.34526504
N       11.81494085       1.88057215       5.06081229       0.20191841       0.12207980       0.05864164      -0.02441028       0.14623166      -0.15814018
N       11.66449666       0.42328257       3.12744520       0.36540556      -0.62308049      -0.87626566       0.41523120       0.21484983       0.50379798
N       15.45893397       4.60627967      15.89917053       0.08166865      -0.68309661       0.51165567       0.42844733       1.05677504       0.66774748
N       15.17114789       2.72268179      -0.08581696      -0.19305587       0.79316573      -1.92714662       0.35737592       0.13067788      -0.21899406
Pb      13.93745576      29.86650541      16.57925659       0.00012776      -0.25207639       0.11385275      -3.06851225       0.95941918      -2.35099734
Pb       9.92619636      30.27135071      16.75460899      -0.05127181      -0.27899477       0.20318917      -0.07482351       0.22660589      -1.50306184
I       15.56122283      30.49676796       1.26551826       0.01446233       0.34300103       0.18743824       0.45825990      -0.09489265       2.19585697
I       10.69891940       4.93109196       1.80425598       0.07757396       0.06736684       0.22233405      -0.25534723       2.40034152      -0.99762898
I       15.37052339       0.33861398       6.30227214      -0.02854808       0.14442690      -0.25294434      -0.43692440       0.61714155       0.53448615
I       10.78524680       5.27689944       6.41012222      -0.00433507       0.12577009      -0.24478078      -1.60998450      -0.20939780      -0.31005296
I       14.69975564       3.80330633       3.62434443      -0.01715144       0.03295357      -0.11342857       0.60224996      -0.28810067      -0.22481182
I       11.74894113       1.34806964      17.53140988       0.12571400       0.42610282      -0.01086125      -1.46663604       0.40758579      -1.99208295
H       11.10072495      10.10797036       0.28061369       0.16898878      -0.11856057      -0.32672570      -0.10387995      -0.13966160      -0.05209147
H       11.58081304      10.97559954      15.75090207      -0.01052719      -0.13101723       0.18865451       0.08286630      -0.13684987       0.29317495
H       11.55528669       9.28433204      15.22531085       0.24745067       0.61254048       0.47992554       0.00071667      -0.14250567       0.20487020
H       11.43838506       7.46695255      17.12898208       0.22433908       0.03767366       0.02647472       0.00700040       0.02172442      -0.00175260
H       11.13693297       8.00593737       0.95484146      -0.18929436      -0.52695505       0.55855382      -0.01427702       0.09136979       0.01588009
H       15.54247660      10.48060580       4.35403200      -0.09410384       0.22588988      -0.39406129      -0.04964048      -0.07087750      -0.06132941
H       15.30104993       9.87973462       2.17752748       0.11194211      -0.11098100      -0.47816261       0.08967821      -0.16398881       0.11157633
H       15.88768353      11.49288373       1.48031618      -0.27783915      -0.97219671       0.76182448       0.00843611       0.01848695       0.07764812
H       16.11638464      13.24155735       3.27045563      -0.08252122      -0.74447609       1.04288636      -0.19146724      -0.04825520       0.10768733
H        7.46515883      10.11983744       2.14296608      -0.25727848       1.01986959      -0.28905462      -0.11292471       0.00717807      -0.13001762
C       11.51676429       9.56095243      17.25938441       0.38254715       0.83669292       0.26328951       0.17698595       0.04411137      -0.13539495
C       15.70347616      11.24412773       3.55374485       0.16921637       0.09516974       1.82227984       0.65040519      -0.00535743      -0.25079729
N       11.65063784       9.95890750      16.01544787      -0.51690626      -0.74415909      -0.90581935      -0.16700018       0.72557183       0.14604589
N       11.23105182       8.05567378      -0.05256750      -0.38122035       0.04825920      -0.33361500       0.53501406       0.04191562      -0.14634116
N       15.63821612      10.85961226       2.31420888      -0.05064526       0.88407060      -1.24889455       0.50556370       0.00180621      -0.41518139
N       15.95922425      12.46456628       3.98779080       0.22330720       0.40402383      -1.62205169       1.03705284      -0.05873959      -0.20352455
Pb      12.72126704       6.31399833       3.90511479      -0.03671142       0.17398157       0.04324339      -1.57133216       0.41208293       0.80007885
Pb       8.68015931       6.35997823       4.02339761       0.15719005       0.14964442      -0.07112589      -0.39891014      -0.54093158       0.16793063
I       15.13412001       7.83707364       5.78318832      -0.29341137       0.00903205      -0.01555828      -1.42788232       0.23249644       0.08782907
I       11.45226739      13.30960385       5.82383728      -0.05337368       0.03474356      -0.34344672       1.20476085       1.15265065       0.97869790
I       14.68197613       7.49265932       1.62985127      -0.26785738       0.02968285      -0.51474126       1.75328977      -0.80439079      -0.28748903
I       11.56143629      12.71110586       1.26682561      -0.18722064       0.02373743      -0.07051793      -0.13197204       0.66125637       0.47854986
I       15.88900121      11.87447044      16.55278886       0.12153332       0.10731520      -0.09210977       0.40314022       1.24370325      -0.11257376
I       10.51112755       9.02364438       3.59391121       0.23764060      -0.30199813       0.05299937       1.03734845      -1.10383209       1.08062650
H        2.94701941       2.86661169      11.79609934      -0.22680296      -0.08651168       0.80350176       0.09047854      -0.14623426      -0.04368692
H        2.92961220       3.52141640      14.19050530      -0.09654533      -0.94568058      -0.44202616       0.12880335       0.01232606      -0.16754229
H        3.22365329       1.87446061      14.68431094       0.08176009      -0.36704321       0.41303140       0.11452487      -0.34953585      -0.00051413
H        3.75502715       0.19524225      12.89986583       0.01259399      -0.32685359       0.00626325      -0.21888568       0.05910462       0.03057174
H        3.58790458       0.77016323      11.22234267      -0.01265993       0.06793865       0.22329704       0.21318356       0.19599692      -0.05770883
H        7.47809079       2.87540274       7.90662784       0.04826126       0.22601103      -0.03462964       0.30120276       0.14992860       0.04423975
H        7.67295913       2.74890948      10.26496821      -0.07394725       0.42553585      -0.48257855      -0.00793748      -0.21774693       0.02077597
H        7.22617142       4.49172539      10.49875812       0.13089600      -1.11542104      -1.20648594       0.20589204       0.28117349      -0.02774790
H        6.87137253       5.82201008       8.28663682      -0.22164862       0.64671473       0.34612427       0.34061035      -0.14348228       0.07206000
H        6.79775887       4.78349820       6.80493836       0.02647081       0.40986384      -0.29927202      -0.10134667       0.01568534      -0.11435803
C        3.10961083       2.13190510      12.63369829       0.62079885       1.69959599       0.52460857      -0.96962973       0.39232446       0.33336110
C        7.32639636       3.82485121       8.49937884      -0.35546524      -2.52755484      -0.29259859       0.23263910      -0.05534314      -0.14355612
N        3.00866347       2.50792714      13.91222910      -0.11118509       0.92540452      -1.21416175      -0.52482691       0.49304682      -0.38594252
N        3.56087101       0.96050082      12.23550548      -0.24759759      -1.06530231      -0.16973030       0.01277983      -0.34649608      -0.44800450
N        7.45542487       3.68188103       9.80135204       0.20436330       0.97188974       2.47612830       0.06957929      -0.00968006       0.22654237
N        6.92348377       4.89818871       7.84100773       0.13548930       0.72454249      -0.68722979      -0.58057292       0.72087492       0.04847563
Pb       5.83326198      30.07611088       7.82519608      -0.28332434       0.40811976      -0.15198913       1.93542988      -1.90977054      -0.27784167
Pb       1.72737103      30.33008638       8.11066092       0.16137657      -0.07679038      -0.41354558      -0.74685856      -1.18873373       0.04818108
I        7.52756300       0.04084958      10.88614171      -0.10832228       0.02968513      -0.30629749       1.87189477      -0.98056797      -0.40244713
I        2.87652493       5.28907547      10.52767123       0.08379720      -0.01662206       0.01051255       0.44586462      -0.41525444      -0.82696892
I        7.69979916       0.64960653      15.27145641       0.07474013      -0.05568165      -0.07222056       2.61268118      -0.90623256      -1.38880271
I        2.87510299       5.94825834      15.18798511       0.14895727      -0.03346273      -0.00926811      -1.44247814      -1.78553258      -0.53765320
I        6.78121557       4.03489062      13.19131534      -0.12028290       0.02894822       0.10352729       1.81529259      -3.13591152      -0.73678049
I        3.62602440       1.68835084       8.63075394      -0.14477031      -0.11617696       0.03524104       1.08644023      -0.66763529      -1.84803360
H        3.44489444      10.76790487       8.88778866      -0.23332718      -0.69115156      -0.34186694      -0.08991880       0.06919674      -0.15004140
H        3.45050021       8.66103555       9.77960526      -0.08169581      -0.55773811       0.96603604       0.01659289       0.12157453      -0.07059066
H        3.43398932       7.76970784       8.18379851      -0.16583720       0.70494557       0.81181817       0.04211498       0.03982714       0.00869214
H        3.31280321       9.62269278       6.11503337      -0.18512471      -0.43322838      -0.14859527      -0.12829496      -0.12774539      -0.14682707
H        3.24162703      11.27472406       6.71336707       0.07358965      -0.19210989      -0.09646839      -0.02542589       0.03750417      -0.02153763
H        8.24905364      10.90591097      13.18356888       0.00720031      -1.29887033       0.62080072       0.11475885      -0.07402244      -0.05171597
H        8.37516297      13.04220117      13.81243774       0.03835732       0.05021283       0.72722553      -0.00457775      -0.07392212       0.06804070
H        7.91284079      13.71915652      12.25151852       0.04361014       0.78303087      -0.74108933      -0.11686054      -0.02124230       0.23132371
H        7.11035386      12.02796625      10.44648413       0.14370166       0.13125906      -0.72157544      -0.06178760       0.11304662      -0.03910215
H       16.28286638      12.72948392      13.85747059      -0.08480766       0.24087279       0.35779565      -0.18357309       0.09252378       0.09909331
C        3.37319232       9.88129521       8.19695277      -0.14567922       0.40846185       0.25403405      -0.01004458      -0.18189242      -0.17915253
C        7.97615938      11.65434310      12.42486019      -0.26677980       0.90267381      -1.59448997      -0.12031439      -0.99254700       0.22685500
N        3.37930298       8.65996011       8.76189678       0.49220140       0.55449627      -2.48833577       0.51947010      -0.12149189       0.01059109
N        3.27644160      10.25047713       6.91487358       0.18545021       0.03741074       0.75942793      -0.41965917      -0.91683570       0.39400075
N        8.13382573      12.89154808      12.83837507      -0.19993428      -0.82214606      -0.13179269       0.50296915      -0.05290851      -0.73978359
N        7.42003013      11.32122280      11.18548560       0.38596394      -1.16712536       2.39519686       0.14247209       0.79023127       0.34509748
Pb       4.88774136       6.61604844      12.69139808       0.04775897       0.08259777       0.17985697      -1.79903253       1.31700957       0.59585362
Pb       0.99197186       6.86665895      12.60593151      -0.10681757      -0.29872362       0.25708725      -1.39655810      -3.40195809       2.06788032
I        6.91576800       8.17388011      14.84031275      -0.06641531       0.07640804      -0.30108618       0.11646151       1.00910964       2.17413035
I        3.55235455      13.80919526      14.65723898       0.16964529       0.15562348       0.11149212      -1.71900631       0.70286010       0.07138536
I        6.87060872       7.48961169      10.33402942       0.26671696       0.18566355       0.24711323      -0.23633518      -1.30425962       0.03201909
I        3.55492179      13.23674075      10.13534376       0.15342757      -0.25333348       0.37977038       0.94254748      -0.07132271      -0.74275801
I        7.41501970      12.11037883       7.67932077       0.22895969      -0.36892702      -0.07086926       1.04527137      -1.22293128      -1.60588693
I        2.86898239       9.23206653      12.11271850       0.23158798       0.23408333       0.22958243       0.79628732      -0.66138904       1.74914744
H       11.81518801       2.66625998      12.04570928       0.12836543      -0.25109917      -0.47640914      -0.24662985      -0.06662954       0.24816960
H       11.95411724       3.00219829      14.27211210      -0.01102138      -0.59169653      -0.21916345       0.08315805       0.28646418       0.30986935
H       12.17519776       1.31102766      14.66389824      -0.20961213      -0.27986989       0.32570652       0.14537763      -0.07445994       0.10605746
H       12.09631077      30.72496852      11.93563864       0.08745510       0.15452685       0.11021303       0.08056317      -0.08430135      -0.08003167
H       11.91388624       0.59469759      10.93776413      -0.25119880      -0.00339855       0.90686811      -0.02845247      -0.10633237       0.22330354
H       15.60132146       4.93326855       9.00942445      -0.18040817       0.52262510       0.29754588       0.09991189      -0.02504398       0.05097707
H       15.33980212       5.47362379       6.74096525       0.02435448       0.49829800       0.13907252       0.06193071       0.11585782      -0.00722331
H       15.11018603       3.80973961       6.23798698       0.07266896      -0.39539791      -0.18834021       0.04966738       0.31296482       0.12601909
H       15.23189298       1.96985738       8.19094530      -0.12360397       0.71024110       0.53705437       0.13756924       0.11704487       0.10441427
H       15.33198677       2.76859273       9.79781270       0.12570556      -0.15510032       0.56690096       0.01339086       0.15717125       0.00263399
C       11.90242184       1.72703457      12.64221014      -0.43005136       1.40479799       0.39102489       0.06584896       0.52299926      -0.23003541
C       15.41742578       4.11872381       8.27742029       0.19088788      -1.16906337       0.38232543      -0.57343641      -0.44960110      -0.34526504
N       11.97575753       2.00656134      13.94153843       0.20191841       0.12207980       0.05864164      -0.02441028       0.14623166      -0.15814018
N       11.82531334       0.54927176      12.00817134       0.36540556      -0.62308049      -0.87626566       0.41523120       0.21484983       0.50379798
N       15.29811730       4.48029047       7.01844440       0.08166865      -0.68309661       0.51165567       0.42844733       1.05677504       0.66774748
N       15.33196457       2.84867098       8.79490918      -0.19305587       0.79316573      -1.92714662       0.35737592       0.13067788      -0.21899406
Pb      13.77663908      29.74051622       7.69853046       0.00012776      -0.25207639       0.11385275      -3.06851225       0.95941918      -2.35099734
Pb       9.76537968      30.14536152       7.87388286      -0.05127181      -0.27899477       0.20318917      -0.07482351       0.22660589      -1.50306184
I       15.72203951      30.62275716      10.14624440       0.01446233       0.34300103       0.18743824       0.45825990      -0.09489265       2.19585697
I       10.85973608       5.05708115      10.68498212       0.07757396       0.06736684       0.22233405      -0.25534723       2.40034152      -0.99762898
I       15.53134007       0.46460317      15.18299828      -0.02854808       0.14442690      -0.25294434      -0.43692440       0.61714155       0.53448615
I       10.94606348       5.40288863      15.29084836      -0.00433507       0.12577009      -0.24478078      -1.60998450      -0.20939780      -0.31005296
I       14.86057232       3.92929552      12.50507057      -0.01715144       0.03295357      -0.11342857       0.60224996      -0.28810067      -0.22481182
I       11.58812446       1.22208044       8.65068375       0.12571400       0.42610282      -0.01086125      -1.46663604       0.40758579      -1.99208295
H       11.26154163      10.23395955       9.16133983       0.16898878      -0.11856057      -0.32672570      -0.10387995      -0.13966160      -0.05209147
H       11.41999637      10.84961034       6.87017594      -0.01052719      -0.13101723       0.18865451       0.08286630      -0.13684987       0.29317495
H       11.39447002       9.15834284       6.34458472       0.24745067       0.61254048       0.47992554       0.00071667      -0.14250567       0.20487020
H       11.27756839       7.34096335       8.24825595       0.22433908       0.03767366       0.02647472       0.00700040       0.02172442      -0.00175260
H       11.29774965       8.13192656       9.83556760      -0.18929436      -0.52695505       0.55855382      -0.01427702       0.09136979       0.01588009
H       15.70329328      10.60659499      13.23475814      -0.09410384       0.22588988      -0.39406129      -0.04964048      -0.07087750      -0.06132941
H       15.46186661      10.00572381      11.05825362       0.11194211      -0.11098100      -0.47816261       0.08967821      -0.16398881       0.11157633
H       16.04850021      11.61887292      10.36104232      -0.27783915      -0.97219671       0.76182448       0.00843611       0.01848695       0.07764812
H       16.27720132      13.36754654      12.15118177      -0.08252122      -0.74447609       1.04288636      -0.19146724      -0.04825520       0.10768733
H        7.62597551      10.24582663      11.02369222      -0.25727848       1.01986959      -0.28905462      -0.11292471       0.00717807      -0.13001762
C       11.35594762       9.43496323       8.37865828       0.38254715       0.83669292       0.26328951       0.17698595       0.04411137      -0.13539495
C       15.86429284      11.37011692      12.43447099       0.16921637       0.09516974       1.82227984       0.65040519      -0.00535743      -0.25079729
N       11.48982117       9.83291830       7.13472174      -0.51690626      -0.74415909      -0.90581935      -0.16700018       0.72557183       0.14604589
N       11.39186850       8.18166297       8.82815864      -0.38122035       0.04825920      -0.33361500       0.53501406       0.04191562      -0.14634116
N       15.79903280      10.98560145      11.19493502      -0.05064526       0.88407060      -1.24889455       0.50556370       0.00180621      -0.41518139
N       16.12004093      12.59055547      12.86851694       0.22330720       0.40402383      -1.62205169       1.03705284      -0.05873959      -0.20352455
Pb      12.88208372       6.43998752      12.78584093      -0.03671142       0.17398157       0.04324339      -1.57133216       0.41208293       0.80007885
Pb       8.84097599       6.48596742      12.90412375       0.15719005       0.14964442      -0.07112589      -0.39891014      -0.54093158       0.16793063
I       15.29493669       7.96306283      14.66391446      -0.29341137       0.00903205      -0.01555828      -1.42788232       0.23249644       0.08782907
I       11.61308407      13.43559304      14.70456342      -0.05337368       0.03474356      -0.34344672       1.20476085       1.15265065       0.97869790
I       14.84279281       7.61864851      10.51057741      -0.26785738       0.02968285      -0.51474126       1.75328977      -0.80439079      -0.28748903
I       11.72225297      12.83709505      10.14755175      -0.18722064       0.02373743      -0.07051793      -0.13197204       0.66125637       0.47854986