768
Lattice="25.888783465013457 -0.26065579461610544 0.6964381020346223 0.2808865365786464 25.92206712803773 0.0706842229014887 -0.6430174188924329 -0.04221809821815645 25.838360985299012" Properties=species:S:1:pos:R:3:forces:R:3:momenta:R:3 energy=-3638.9549541578936 stress="0.0 0.0 0.0 0.0 0.0 0.0 0.0 0.0 0.0" pbc="T T T"
H        9.84515160      13.13560630       3.01373801      -0.57715700      -0.21913841       0.10460593      -0.02240836      -0.05495382      -0.00546528
H        8.85582077       4.34361505       2.00611775      -0.25282601       0.14422749       0.22955600       0.00876928       0.12026019      -0.14461608
H        8.59764053       3.69128354       8.85420258      -0.35619135       0.79800622       0.81792946      -0.12716880       0.10110299       0.07031950
H        8.17317399      13.58841626       8.73332584       0.27580940      -0.08723542      -0.11629963      -0.04400761      -0.04452845      -0.09146061
H        8.42441883      13.41595696       1.04958497       0.10023452       0.34225729      -0.17974422      -0.13630500      -0.07225175      -0.09884605
H        7.14195801       6.10913312       1.11387957      -0.15194677      -0.20651073      -0.38844825      -0.14378175       0.05201727       0.06104012
H        1.03705350      13.43053815      10.44390995      -0.28881855      -0.20026568       0.14407347       0.02332852       0.25716777       0.16342240
H        9.43854522      12.78185413      10.57714676       0.28044861       0.38383283      -0.20861233      -0.03686453      -0.00762045       0.13263261
H        3.22290824       5.26718000       1.93161840       0.18895306      -0.17740795       0.11793339      -0.24461504      -0.12800717      -0.02507183
H        0.82507877      10.98979682       2.18758254      -0.04266789       0.44777888       0.58470344      -0.05315096       0.12007256      -0.14822407
H        0.42205369      11.84400011       9.92198049      -0.27661686       0.03829953      -0.08671291      -0.16845090       0.00628405      -0.24500960
H        8.55836799      11.28446744      10.67155085      -0.20220063       0.00014472       0.00785636       0.11438849      -0.15669328       0.17009685
H        1.68872485       4.52481576       3.97303991       0.09474896       0.48182759      -0.46536177       0.18454279       0.08247880       0.06730035
H        2.97614823      11.67175355       1.30939216      -0.10965387       0.13163271      -0.30851334      -0.09818595      -0.10764923      -0.07148156
H        1.53436811      10.97234100       7.85508723       0.45491638       0.50975211      -0.24530358      -0.07288111       0.02770236      -0.11663279
H        1.99683484       6.69220747       7.73748134      -0.13031927       0.16154638      -0.21009586       0.07373623       0.23856105      -0.13863603
H        9.66763728      11.39210326       4.43787809      -0.65192444      -0.61748488      -0.49065420      -0.17410919       0.03100422       0.04392209
H        3.63827609      13.27256266       1.79481825       0.09173363      -0.01178537      -0.00133439       0.08055104      -0.03469933      -0.08774842
H        9.95809358       4.82870217      10.58750147       0.62416055      -0.60330939       0.09642018      -0.08318150      -0.02394019      -0.04384357
H        3.05730847       5.31638006       7.50015832       0.19020527      -0.08964677       0.03659863       0.18077450       0.25082865      -0.03613851
C        9.03951588      12.33302702       2.76279632       1.35388875       0.71617172      -0.04394500      -0.16568433       0.14789158      -0.40654212
C        2.00010270      12.65382204       2.83684050      -0.32863436      -0.82126823      -0.52365845      -0.70938978       0.40804650       0.30652827
C        1.91414164      12.73695961       8.80845650       0.03704918      -0.71772114       0.47683686      -0.49871851       0.48297773       0.29723263
C        1.83406703       5.21515347       9.21253977       0.83304435      -0.98847206       0.13664333       0.00242218       0.81916277      -0.08106617
N        2.64771192       6.11290635       1.93590683      -1.66987370       0.76840305       0.93538670       0.53718013      -0.15321723      -0.26106807
N        0.99217634      11.75957680       2.94203332      -1.06719435       0.13306937       1.27203402      -0.19642363       0.69878249       0.62557273
N        0.98851556      12.67731504       9.73767888       0.26956341       0.21494591       0.21715238      -0.58800795      -0.85701977      -0.42491026
N        8.66032846      12.21624056      10.22734144      -0.33636702      -0.54044276      -0.43899130       0.17095509      -0.19308957      -0.02371041
N        1.24795251       5.42204335       3.71240935      -0.74184508       0.14245229       0.90311405       0.39431588       0.08211440      -0.24403955
N        2.87971709      12.56419386       1.84803020       0.83940913       0.17555490      -0.10414212       0.48012364       0.76318334      -0.76007716
N        9.15683892       5.29263989      10.17379443      -0.71784763       1.02150822       0.36624322       0.40869223       0.10844891      -0.03697349
N        2.31503886       5.76344361       8.06931775      -0.49174687      -0.18626847       0.86911415      -0.40349931       0.10216418       1.03468660
Pb       4.83588481       2.40197388      12.43059957       0.13632713      -0.21505066      -0.16147523       2.80898120      -1.63440576      -3.49618192
Pb      24.21560349       2.26465858      13.22666731      -0.01129672       0.32373376       0.21354583       0.71021557       1.39853009      -0.16331326
Pb       5.08676362       8.77879338       5.88280283       0.30464256       0.28925211      -0.24710595       0.10693084      -0.91284369       0.28402835
Pb       4.96529190       2.54495043       5.96972153      -0.03942676      -0.42584852      -0.17729398       0.01144418      -1.30641850      -1.20729422
I        7.93087343       2.77381017      12.97788297       0.07241587      -0.09088303       0.04714564       0.90515781       1.82509144      -0.62376034
I        1.70254441      15.47735111      11.99266863      -0.08634149      -0.01101346       0.03252382       0.90129475      -0.72328162      -2.20760533
I        1.58820066       2.10874261       5.92579162       0.20293606       0.18642520       0.04041613       2.27857339      -1.00152356      -2.42405389
I        8.16999071       2.36277435       6.05981665      -0.08623952      -0.05056559       0.09286380       1.88299110      -1.28183250       0.93116796
I        5.11784965      12.11021901      11.89185090      -0.02601124      -0.03404550       0.10632074       0.30744574      -1.03343785       0.41523403
I        4.55959044       5.82706564      24.91079397       0.06941539      -0.19767336      -0.00123621       0.00942315       1.34238274      -0.01958646
I        4.92693931       5.62715138       5.74652717       0.13294205      -0.01427659      -0.09553663       1.84783258       2.55387568       0.05559405
I        5.04230096      12.06460772       5.62251306      -0.05612528       0.13434426       0.03497731       1.61464628      -0.18868773      -2.35368581
I        4.82459351      15.35801426       2.41607437       0.03494719       0.07339719       0.18267119      -0.14150221      -0.87403575       1.28187324
I       24.55388393       2.66863695       3.63488080      -0.00717303      -0.07870139      -0.17523060      -0.74898300       0.81076297       0.26245484
I       23.55091551       2.54390340      10.06337803       0.17657575       0.12647966       0.07775646      -0.38663466       0.88806517       0.59552913
I        4.87644920       2.34392370       9.06093492      -0.04138377       0.08999694      -0.10003568       0.76036406       3.02845429       1.69915156
H        0.91243002       7.15835129       2.59759780       0.45713316      -0.41346623       0.24763054       0.16385483      -0.00462862      -0.03669736
H        2.07542868      13.46646530       3.58194907       0.11696793       0.63501951       0.21728401      -0.04065269      -0.01861477      -0.12704069
H        2.59630018      13.57577386       8.94023664       0.29085392       0.48024766      -0.64698117       0.11588754       0.11666775      -0.08868763
H        2.29018068       4.22322177       9.60340867      -0.32369140       0.71000653      -0.48341854       0.06324353      -0.05865628      -0.16992867
H        2.73140366       6.80380614       1.17601834       0.19467059       0.06114217      -0.09249751       0.00589509       0.15123722       0.09094074
H        0.31301579      11.86845074       3.78038785       0.43745709      -0.62233013      -1.10132440       0.11009037       0.10904489       0.12118243
H        6.55079943       4.85651471       8.14453035       0.74238203      -0.08323864       0.51104132      -0.06120906      -0.05748586      -0.00044488
H        0.52325616       5.17811057      10.87162787       0.63896568       0.62052260      -1.10239217       0.04667347       0.07802261       0.26424082
H        7.56886381      11.87613627       1.31814810      -0.69991307      -0.96773441      -0.17861462       0.17845238      -0.16654631      -0.06966255
H        7.10212639       7.26962198       2.67122880       0.08818068       0.36661748       0.33579728      -0.10588838       0.04627223      -0.04205759
H        6.96015399       6.25261176       9.12953126       0.35670589      -0.70930376      -0.11475147      -0.04189352      -0.18998527      -0.12126532
H        0.37466137       6.58311511       9.80409732      -0.19419478       0.54573712      -0.19747076      -0.01323553       0.05584389      -0.09558768
H        8.54407001      10.37508082       3.42168952      -0.54331289      -0.55400438       0.14303579      -0.17390167       0.02377103       0.05062124
H        8.77194587       6.20990851       5.07627072      -0.21203711       0.66426219       0.16922004      -0.04968748       0.25371738       0.19371172
H        8.92080403       6.24882990      10.54203866       0.18867512      -0.28767659       0.03955651       0.00929006       0.07075590      -0.04501562
H        6.40618328      11.17711855       9.11927519      -0.10849010      -0.85893051       0.36584195       0.06356648      -0.12535926       0.08372335
H        0.42036278       5.66918922       4.29629748       0.43032934      -0.28959860      -0.21051800       0.00249555      -0.14447562      -0.15021744
H        9.83832888       4.62729786       4.60625820       0.62391589      -0.46453352       0.57112081       0.00880894      -0.11514454      -0.09215931
H        2.87448635      11.95444667       7.18337270      -0.16548464      -0.20541789       0.16135091       0.12383603      -0.02210694       0.00535828
H        6.37445765      12.43309183       7.89883408      -0.06591855      -0.25317020       0.00059364       0.07372149       0.04715643      -0.03112163
C        1.59051526       6.27834049       2.77013558       1.17461524      -0.72730470      -1.40060705       0.15079594      -0.60293378      -0.52399515
C        8.46340671       5.30360859       2.81076374       0.77819090       0.19100055      -0.16851665       0.67128356       0.01044360       0.29578740
C        8.31877013       4.68319556       9.31855305      -0.12910210      -0.47636566      -1.63016790      -0.01730077      -0.35771242      -0.15804327
C        7.93754753      12.60530540       9.17543598       0.25101015       0.60636543       1.16239012      -0.08256112       0.14155540      -0.30345637
N        8.33788088      12.52011006       1.60211963      -0.01079425       0.19357907       0.28757666      -0.53881904      -0.35004786      -0.15214404
N        7.54375078       6.34295124       2.16453194      -0.16873149      -0.54010587      -0.04001138       0.08822191       0.03380401       0.20872727
N        7.22116822       5.27033857       8.85274700      -0.83392560       0.73312056      -0.18833729       0.03443423      -0.20052295      -0.30412804
N        0.88819723       5.71809385      10.00610879      -0.61422046      -0.51264923       0.96286362      -0.12452320       0.92115359      -0.14450133
N        9.04471884      11.25952498       3.59153648       0.92984361       1.23650400       0.39656978       0.22585117      -0.10971501      -0.40013854
N        9.05637390       5.37154127       4.25215549      -0.62631870      -0.08734260      -0.59621168       0.32841309       0.16688396      -0.12865077
N        2.12566786      11.82415907       7.88300242      -0.25614876      -0.14516798       0.06103486      -0.55871997       0.51477765       0.69257153
N        6.84800735      12.01134645       8.72673881       0.02095509       0.65985667      -0.87700263       0.75780217      -1.17419175      -0.08562508
Pb      24.30325432       8.86432187      13.00550035      -0.06472027       0.17862414       0.18803967       0.31444634       0.18592256       0.55437688
Pb       5.03773475       8.77035316      12.30084846       0.00800600       0.07795079      -0.00779192       2.79089865      -2.89642839       1.86760546
Pb      24.43828018       2.37586221       6.90852464       0.13539194      -0.18890458      -0.28729118      -0.90680944       0.99563074      -3.00259917
Pb      24.61742275       8.74646359       6.60719501      -0.12374271       0.07078996      -0.11182729      -0.73542677       0.29525291      -1.72379596
I        1.78630955       8.97446897      12.74087329       0.03466532      -0.08419689       0.03160499      -0.56934020      -0.46620758      -1.12462848
I        8.35865465       8.70170303      11.87843880       0.01748966      -0.00360656      -0.11107332      -0.52801106      -0.66099225       1.99344994
I        8.41935018       8.52862782       6.18113830      -0.10561819      -0.06831877      -0.04931814      -0.08282451      -0.17267623      -0.82629704
I        1.97951424       8.88081378       5.78448332      -0.19302157      -0.05765444      -0.04731591       0.51973033       0.05402946       0.67150027
I       24.09134707       5.65384564      13.54455179       0.04431637      -0.16846798      -0.15390076      -1.56063665      -1.48360217      -0.80474802
I       24.07121074      11.99307305      26.12293496       0.06505418       0.00793586      -0.08458535      -0.72253677      -0.51785590       0.34553597
I       24.59568043      12.17419455       6.48765647       0.05421721      -0.42320326       0.22295623       0.92989066       0.22636950       2.30776010
I       24.85730944       5.51712798       7.17554185      -0.07856129       0.35269121       0.09549060       0.53342632       0.53942481      -0.62597528
I       11.65784932       8.65826473       2.90784303      -0.12937451      -0.11903051       0.07980535       0.92826476       0.00367308       1.88694314
I        5.84476641       9.36946788       2.32227464       0.06262546      -0.08592165       0.08771330       1.26882623       1.26581697      -1.23546291
I        5.04883915       8.83665042       8.83064576      -0.03811613      -0.15929243       0.33518091       1.73610949      -1.38169300       0.02108424
I       24.93896034       8.92634191       9.93131886       0.19182167      -0.00957800       0.01374118       1.59332843       0.38483304       1.81041314
H        9.66543584      13.07440014      15.76211208      -0.01795341       0.51743942      -0.26045076      -0.26139692      -0.00338147       0.03534102
H        8.59222842       4.18104802      15.67480231       0.65878942      -0.85366504      -0.02321829      -0.21875788       0.14610617       0.12231651
H        8.05489522       4.14333195      21.92776764       0.05212725      -0.06845922       0.39504852      -0.00237724       0.26405303      -0.00944300
H        8.02461889      13.35443300      20.98795925       0.48950568      -0.22760229       0.29873931      -0.04386734       0.05579545      -0.12182523
H        8.05024215      13.39678229      13.95532096      -0.00065076      -0.20459646       0.13650765       0.10356872       0.13353606       0.18665737
H        7.13659374       5.22196897      14.30325339      -0.15707179       0.15299805      -0.17383126       0.04468817       0.08051635      -0.01677923
H        1.07202426      13.51371188      23.55513356      -0.08744661      -0.55105302      -0.81137634      -0.03722151      -0.10061873       0.15792673
H        9.53319221      13.44547939      22.96548681      -1.30717000      -1.33949602      -0.32631084       0.01660428       0.14893973       0.04644258
H        2.94745077       4.84104093      14.83833075       0.23761592      -0.70949810       0.21914438      -0.07226800      -0.10561056       0.03365210
H       -0.18303917      11.56025949      16.11999511      -0.50965703      -1.55108650      -0.70456316      -0.28811275      -0.10605370       0.02306986
H        0.26690468      12.12595271      22.75411209      -0.88161207      -1.16781917       0.47213553      -0.06859738       0.08309709       0.09431733
H        8.81854939      11.83696730      23.62321988       0.20917709       0.49060135      -0.17238740       0.09305861      -0.00380237      -0.03614423
H        1.45346614       4.45040088      16.90782254       0.84462876      -1.13514248       0.00885425       0.09189283       0.03946473       0.09712406
H        2.00203617      10.98747093      14.48838024       0.02943479       0.47801545       0.21907100      -0.00206163       0.15102975      -0.23744723
H        1.32102592      11.04235542      20.87570280       0.41334758       0.64574911       0.25047306      -0.06367195      -0.21850628       0.12717378
H        1.87713382       6.97585487      20.36519270       0.28543506       0.29421542      -0.30260568      -0.05782909      -0.07927750       0.09647222
H        9.32725812      11.34756044      17.36164929       0.31618355       0.23949845       0.19537298       0.13862701      -0.23089073       0.08500067
H        3.18186925      12.40953057      14.47632491      -0.50004581      -0.90567579       0.20442213       0.23310636       0.08644635      -0.05258743
H        8.70454712       5.45789883      23.99080887       0.90253987      -0.46205690       0.39867160      -0.10339925       0.14226448       0.21193347
H        3.11403187       5.70477437      20.11083651      -0.39491996       0.27370232       0.08309109       0.10773784       0.11642325      -0.00482342
C        8.73849674      12.38840225      15.63902061      -0.06505528      -0.65575112       0.48314978      -0.08553314      -0.43252929      -0.16354094
C        1.64789672      12.65015883      15.87719713       1.57302066       0.87053985      -1.16515653       0.40508031      -0.38413320       0.22885123
C        1.91318742      12.80308064      21.80485191       0.14933881       0.70257202       1.21278640      -0.59102789       0.15975132       0.04656541
C        1.62330417       5.31681614      21.52311521      -1.12469994      -0.74100140       1.71595050      -0.14664451      -0.14169235      -0.32708612
N        2.36688055       5.65450085      14.70977596       0.95420481       0.06052476      -1.14244768       0.48522545      -0.37799032      -1.01736111
N        0.40554986      12.38040507      16.37900418      -1.52419625       0.98288983       2.41371995      -0.54587632      -0.05372673       0.12753731
N        1.00861696      12.80099579      22.77647302       0.99747065       1.84664357      -0.00469519      -0.09713435      -0.29804885       0.16555327
N        8.84101304      12.59793515      22.89742167       0.64094782       1.34682479      -0.57549473       0.10976248       1.15596225      -0.56711134
N        1.07816443       5.31026038      16.57955187      -1.02689099       1.38350548      -0.20103885       0.13404206      -0.01134222      -0.38628832
N        2.36370652      11.89566261      14.93913894       0.40380759       0.73327594      -0.08785276       0.18686159       0.36016298      -0.36169425
N        7.99254052       5.88698141      23.29554499      -1.04158486       0.05946182      -1.15016806      -0.15935827      -0.11882640      -0.25545910
N        2.25570603       6.05832559      20.61155945       0.06033946       0.70592134      -0.66450113      -0.20450216       0.01602378       0.54270977
Pb       4.53769693       2.47615815      25.21172000      -0.26166778       0.12552482       0.03828657       0.35894130      -0.54759472      -1.81922787
Pb      23.80145769       2.31067237      26.08376927       0.26457995       0.01655825       0.10747038      -1.52466729      -2.16622516      -0.44409828
Pb       4.79244472       9.03202164      18.40248504       0.10938831       0.13116752       0.23676281      -0.33296155      -0.36329032       2.40231083
Pb       4.89536651       2.55933718      18.68025578      -0.20850575      -0.37033004       0.14836617      -1.12548534       2.99392797       3.26778280
I        7.68219428       2.96647827      25.94983065      -0.26999991      -0.03275527      -0.04075540      -0.57628305       0.38352497      -0.22329663
I        1.31030892      15.73601560      24.99978882       0.21941004       0.08506712      -0.11923887       2.49034410      -1.43343228      -1.29479040
I        1.43524473       2.35517363      18.78744411      -0.01784061      -0.01252662      -0.02930206       2.11015173      -1.44501113      -2.25032283
I        7.87898498       2.57282325      19.11836500       0.11728245      -0.10890377       0.04265797      -0.99906558       0.10911919      -0.71008342
I        4.95702095      12.27698699      24.85529012      -0.00661151      -0.01946785       0.00536501       1.51004363       0.26433299       0.85192711
I        5.02498486       5.69990805      12.30165183      -0.03808990       0.05188773      -0.11339783      -0.85162259      -0.30923437       0.40570448
I        4.84972306       5.79902118      18.20190906      -0.03357272      -0.14341597      -0.19132413       2.33214787       1.38803891       0.15385815
I        5.14050247      12.37657220      18.55974499      -0.22237273      -0.48889242       0.03405265       2.16805149      -1.26594210       0.95869932
I        4.75081989      15.14611413      15.42762643       0.00795479      -0.20090658      -0.12076594      -2.31800135       0.77164752       0.86786671
I       23.94649257       2.22828666      16.52598357       0.08036114      -0.05153691      -0.26153109       0.00787658       0.83312276      -0.57974039
I       23.18750914       2.13962169      22.81234780       0.09735694      -0.05012213       0.32264086      -0.56089618       0.58346818      -1.19251746
I        4.30024941       2.56662609      21.85648987       0.14338962      -0.06709534       0.00229931      -0.11399311      -0.44966801       0.90080146
H        0.87676058       6.93762663      15.26667548       0.02823282      -0.50982981       0.14273834       0.22532549       0.00657231       0.04067157
H        2.15647097      13.61154732      16.24660873      -0.00429191      -0.06084234      -0.07562744       0.02223334      -0.06127053      -0.20992596
H        2.65836742      13.64244268      21.78951138      -0.25258212      -0.59185036      -0.03435119      -0.15319814      -0.07182185      -0.02520502
H        2.00009993       4.29050773      21.64176156       0.03484614      -0.40120383       0.38250440      -0.13619324      -0.10825108       0.03264779
H        2.61026550       6.21763443      13.90196137      -0.07243037       0.29924935      -0.23620775       0.13183922      -0.05599122       0.01318175
H       -0.02813050      13.03930291      17.16204854       0.45752597      -0.63979894      -0.85696544      -0.10735020      -0.14977236      -0.07123991
H        6.54013951       5.00448684      20.26297687      -0.60434498       0.58081956      -0.06584291       0.06884724       0.03250423      -0.17684997
H        0.06085916       5.02300289      22.97179116       0.30808220       0.59355625      -0.52554556      -0.23279454      -0.11690352      -0.12484693
H        6.99507170      11.94886875      14.41300717       0.24220340       0.10936088       0.11773982      -0.21216914       0.12506214      -0.11075716
H        6.91351900       6.68992531      15.30589645       0.21913726      -0.03833327       0.01357973      -0.01735413       0.01636333       0.04994699
H        6.22916005       6.68414853      21.22192882      -0.09837979      -0.98781961      -0.72447403       0.09199439      -0.02197079       0.06905756
H        0.29654646       6.75756611      22.21576469      -0.22050123      -0.33782128       0.15580511      -0.12831137      -0.12450792      -0.14388386
H        7.85663807      10.67055499      16.52679121       0.12330350       0.18935186       0.09819403       0.00039883       0.04251211      -0.18826499
H        8.42433662       6.63133693      17.62017980       0.27470870      -0.68237752      -0.37554577      -0.01588186       0.04832233       0.16919096
H        7.67236776       6.96836301      23.39180972       0.15122367       0.37064682       0.67415546       0.05783430       0.09830418      -0.07605280
H        6.90256686      10.82853584      22.33080800       0.15774112       0.38440853      -0.29203229       0.11262285      -0.09516244      -0.11892318
H        0.31562123       5.64631667      17.16314275      -0.28771112       0.15630950       0.05333248       0.03507210       0.03272205       0.01984199
H        9.41642114       5.10965359      17.72747947      -0.15645455       0.15151109      -0.13174608      -0.09678258       0.16761882      -0.05647479
H        2.75152595      11.84625079      20.18283153      -0.54288044       0.11530366       0.65758714      -0.00633311      -0.01427435      -0.05766746
H        6.56926073      11.56875694      20.72896411      -0.80976720       0.47680096      -1.01922760       0.07352185      -0.13561462       0.13496576
C        1.40341936       5.98880177      15.49006945      -0.81384242       0.41659718       1.22053141       0.09283121      -0.54463854      -0.11315733
C        8.23461188       5.17228396      15.97685345       0.16617535       1.65894251       1.70092489      -0.42210286      -0.22930894       0.18718967
C        7.58289268       5.18098912      22.14500135       1.15428287      -0.56678432       0.25734913       0.20967371       0.25272877       0.06785254
C        8.02407034      12.53894440      21.79827945       0.27358215       0.35061541       1.00075195       0.30551009       0.62339823      -0.41027966
N        7.87170592      12.56270591      14.59868328       0.18173704       0.37017237       0.03600730       0.32846722      -0.55103495      -0.20036002
N        7.39523202       5.77864628      15.13363331      -0.59323511      -0.07993583      -0.49169086       0.52504909      -0.74735808      -0.37214882
N        6.67834558       5.64981858      21.17522056      -0.30130307       1.22639507       0.37360021       0.75423842      -0.40844860       0.18047946
N        0.56178406       5.70616551      22.28425849       0.94754167      -0.39699357      -0.72566631      -0.50610463      -0.05136360      -0.29748335
N        8.61585095      11.42633764      16.59133894      -0.67665796      -0.37405632      -0.74256221       0.36489025      -0.34310735       0.07989668
N        8.69269866       5.67399195      17.17755786      -0.38310907      -0.17159421      -0.55075526      -1.33306689      -0.14613151       0.69010240
N        2.01661056      11.83519402      20.93525102       0.29348446      -0.96474007      -1.77832083       0.17325989       0.22193179      -0.07566604
N        7.07516798      11.61567170      21.63700822       0.38858283      -1.22512036       1.11013200      -0.52348723      -0.00124509      -0.37472698
Pb      24.39624419       8.75222780      25.83711872      -0.31420693       0.10912358      -0.07835455      -2.59794781      -2.13768460       0.81280092
Pb       4.84179273       8.91700236      24.98870521       0.09459706       0.34473137       0.16433807      -0.78852558      -2.69142410      -1.67084613
Pb      24.20380549       2.25321460      19.69928749      -0.01837608      -0.08185389      -0.09741984      -0.81550028       0.27750996       1.51126327
Pb      24.23774231       8.81047984      19.57157241      -0.20358434       0.13125611      -0.08000661      -0.16452123       1.87873185       0.37080302
I        2.54911701       9.33632416       0.19741267      -0.32031992      -0.09841186      -0.09990746       2.45132156       0.00988757      -0.59495302
I        8.41707077       9.38561378      24.47597653      -0.49138878      -0.12357013      -0.00194382       0.87757070       1.04320151       0.14924073
I        8.20368760       9.11205298      19.34205933      -0.23797893      -0.31819294      -0.10052835       1.70930095       0.53001857       0.82591249
I        1.69736788       9.15892645      18.24166251       0.14277485      -0.08348687      -0.00822180      -1.51469338       0.93723933       0.73504059
I       24.14138427       5.55079286      25.95747726       0.07434584       0.06590797       0.02499737       0.52072785       2.11272200       1.41407887
I       24.38695993      12.09915683      13.19499427      -0.00382814      -0.18045317       0.04469676       0.34479228      -0.35564900       0.31472927
I       23.99065735      12.11676473      20.10654919      -0.00535064      -0.05741765      -0.25973765       2.79146953       0.35472729       1.89270960
I       24.13383347       5.53707972      19.62471516       0.01514835       0.04551348       0.03490068       2.52600482      -0.99372072       0.62621286
I       11.22717130       8.58775639      16.17220434       0.05496344       0.12905833      -0.29301431      -2.23874723      -1.26044681       1.72207621
I        6.14149453       9.07809718      15.30842662      -0.19602196       0.11842872       0.03169627       1.68796431       0.01884312       0.14678231