768
Lattice="40.227587415121015 -0.7682833808457515 1.3263590934115383 0.394859312395313 23.52400323722727 0.25591382290307674 -0.5366011814355014 -0.10491616676151522 18.726843227480614" Properties=species:S:1:pos:R:3:forces:R:3:momenta:R:3 pbc="T T T"
H        7.31988346       1.23365218       4.92223033       0.92894294      -0.97260143       0.33451749      -0.14596131      -0.02534895       0.00399148
H       11.99195192      12.61376192       2.50069862       0.34379745      -0.06770814       0.25436715       0.05270873      -0.17824499       0.05413597
H        2.03807105       6.72484188       4.35093217      -0.14407602       0.43837387       0.03700128      -0.07291597      -0.09722046      -0.05634128
H       17.82725967       6.55806284       2.48359685      -0.31420588      -0.23198063       0.20589634       0.10492741      -0.26001619       0.08596835
H        7.25021812       2.58136689       8.18063303       0.59893989       0.00441169      -0.10878168       0.07211383      -0.00517180       0.07605098
H       12.10629250      10.51930861       1.37787804       0.48154106       0.33474699       0.62451084      -0.08530272      -0.03723009      -0.08807027
H        4.08619661       6.01993129       8.05570248       0.06495831       0.94173632       0.47714886      -0.00621285      -0.19523827       0.09946734
H       15.84075407       7.66750446       1.76338440       0.17449706       0.69651878      -0.38094193       0.21041770      -0.00326992      -0.07257958
H        4.34820752       1.56965018       4.76470710      -0.42322249      -0.04536354       0.16162796       0.10976612       0.17270534      -0.16057623
H       13.78577337      10.24380166       1.87490195      -0.59671062       0.45707039       0.42045408      -0.11006317      -0.07280708       0.12141958
H        4.80587565       7.65127526       8.47477643       0.36390022       0.10071542       0.03977399       0.02863483       0.29457181       0.06375095
H       14.73586431       6.53542136       2.42696927      -0.89744064      -0.78237530       0.18232884       0.15695615      -0.02996878       0.09023515
H        5.71090378       3.49163719       3.78733021       1.67878434      -1.35646155       0.21928896       0.00547914      -0.12713851      -0.14597849
H       14.80098483      11.82033937       3.38135198      -0.15130924      -0.18752921       0.00434591      -0.07524571      -0.22150501      -0.12129902
H        4.95994390       7.44213196       4.31640740      -0.08350995       0.12824804      -0.08977099      -0.11014196      -0.11700315       0.00631313
H       15.77513590       4.56854897       3.65204273       0.19996740       0.13740043       0.09199553       0.04432228       0.05646085       0.17869733
H        7.52909232       3.18570992       3.88929073       0.17430820       0.18159231      -0.49577408       0.07729986      -0.01854311       0.01299423
H       14.00275338      13.30491465       3.77350422      -0.46631976       0.16371448      -0.15764415      -0.16542134      -0.02220100      -0.00612780
H        4.06572607       6.16785063       3.48552269      -0.09523868      -0.00147589       0.06433629      -0.00654451       0.03653043      -0.02303514
H       15.28982392       7.47299323       6.48945514       0.59298642       0.94815734      -0.48306458      -0.09273050       0.07060742      -0.15616880
C        6.38112572       1.69283799       4.70243781       0.99175646       1.72259655      -1.76764489       0.77308479      -0.60278388      -0.24264504
C       12.90107105      11.96366672       2.61537606       0.33934189       0.75921140       0.77269889       0.34194821      -0.35929335       0.03182150
C        2.88924339       7.39615034       4.58722799       0.08725523      -0.08119685       0.33285387       0.00079462       0.18601184       0.43544177
C       16.79644895       6.14071575       2.70401980      -0.14771671      -0.70427956       0.51426727       0.07979667       0.16156932       0.69656298
N        5.24899755       1.12669634       5.03118791      -1.37418464      -0.60554510       0.66208741       0.04459211      -0.34445585       0.73859957
N       12.89003693      10.76386010       2.06736477       0.06706233      -1.50877587      -1.80456394      -0.08632610      -0.19388849      -0.30811497
N        4.01217576       6.98325636       8.51601252      -0.39403160      -0.98429831      -0.13499797       0.21941263      -0.02630973       0.08397033
N       15.72098568       6.80252756       2.27730738       0.30974138       0.45978022      -0.37848763       0.08044356       0.52804939      -0.03050395
N        6.52988472       2.81736056       3.99414485      -2.17244829       0.50633243       0.96286257      -1.11141839      -0.30857043       0.37854228
N       13.94812064      12.38709728       3.30638393       0.01554145       0.05686572      -0.21063598       0.94751052      -0.01338284      -0.48238719
N        4.04307258       7.01611478       4.06855111       0.03553783      -0.11144814       0.08284962       0.56638987       0.08540858       0.23578260
N       16.69220959       4.99841340       3.39170764       0.58610424       0.96077995      -0.51325174       0.04324762       0.50366165       0.49912987
Pb       0.57703424       2.88529027       2.50269306      -0.09002289       0.09516389      -0.10657209      -2.45190372      -0.36592194       0.93776194
Pb      18.55829037      10.79990981       5.31500219       0.04663057      -0.16223297      -0.12073269       0.50454485      -0.60405260       0.45326994
Pb       8.47215739       8.64429815       2.49462874       0.01648105       0.15936546       0.03472563       1.20919996       1.05315308       0.96805683
Pb      10.75467975       5.08851962       4.67987807      -0.03090784      -0.20015618      -0.10340952      -1.86263112       0.38216540      -2.57145328
I       39.99683976       4.22380353       6.11270806      -0.08572484      -0.06345262      -0.01691515       0.87538311       0.36918175       0.27982951
I       39.92440554       8.44721661       3.70036463      -0.00040506      -0.01890543      -0.16233906      -0.87881282      -1.02453854       0.54483762
I        9.78524958      10.66340198       4.73495602      -0.11961011       0.05606797       0.16790947       2.39921362      -0.31730272      -0.44168477
I        9.71551914       3.00585221       2.23125356       0.05031655       0.10534729       0.08445099      -0.92397194       0.70525789      -0.70900063
I       17.74803799       1.07875573       2.83869928      -0.13264029       0.19339593      -0.06512043      -1.53877891       1.84795567      -1.09590390
I        1.65820155      12.52606762       4.81517836      -0.01781398      -0.05750873       0.08036430      -1.13261333      -3.09924875       1.09005278
I       11.57671356       7.12590204       2.48817312       0.10556415       0.27336770      -0.22733503       0.46694190       1.54837364       1.23017562
I        7.54014583       6.52426006       4.67024038       0.21057203       0.03272515       0.16413904      -1.41530888       1.47901389      -0.26114245
I        3.46479530       3.90580374       2.09133984       0.25077090       0.32960267       0.20648622       2.06900318      -0.39593073       0.36121449
I       15.66279813       9.69514462       4.90416488       0.00847172      -0.13118922       0.17004335      -0.30102811       0.33490782      -2.09047056
I        5.54537653       9.92968833       2.55045006       0.20177473      -0.03147948       0.04066922       1.52733546      -1.25052877      -1.41302612
I       13.66312148       3.81751447       4.76468760      -0.09853569       0.07690052       0.22017337       0.17362549      -1.34322357       1.13079177
H        7.15186950       0.88444295       9.92250821      -0.38515045       0.62265708      -0.11188968       0.14400950       0.04103341       0.12986820
H       11.96610691      12.64918129       7.78564769      -0.85369872       0.60334025      -0.29792460       0.28185873      -0.05261499      -0.06811480
H        2.06439740       6.53707563       9.02731150      -0.42915372      -0.36053339       0.24132699       0.16872773      -0.09524634       0.04362278
H       17.29032530       6.87903090       7.62622377       0.28564304      -0.14614982       0.28700015       0.10666855      -0.02922427      -0.08841872
H        5.18188623       0.18387099       5.48735041       0.21623510       0.48717508      -0.18661056       0.03652400      -0.15601824       0.14531218
H       11.98347501      10.73346746       6.44268602      -0.72121865      -0.27522066      -0.45592878      -0.03434629       0.17977440       0.00069827
H        1.79843396       8.69313770       5.78497417       0.53244044      -0.23318910      -0.25794750      -0.02731081      -0.18930026      -0.03121517
H       17.44024118       4.74317520       8.61887781      -0.76732595      -0.11216839      -0.13527624       0.03702963       0.01674674      -0.09708685
H        5.62576621       3.03253318       8.31532950      -0.69807015       0.01768100       0.20382487       0.12669524       0.17849100       0.03393691
H       13.71587260      10.46004646       6.71312925      -0.85429570       0.51012824      -0.04823590       0.03576670       0.00838478       0.13309154
H        3.57059843       8.98294385       5.68766984      -0.49634059      -0.11547393       0.01486224       0.04554019       0.00223689      -0.32904996
H       15.76598781       4.20669730       8.07527637      -0.04015942       0.16973521       0.29797517      -0.16095874       0.12698139       0.12199094
H        4.33630100       1.89129938      10.30851294      -0.44458175       0.72100378      -0.04671953      -0.01174120      -0.16261620      -0.02309459
H       14.87579762      12.11990100       8.26119271      -0.56497584      -0.02331808      -0.37760839      -0.08613267       0.04967846       0.03646733
H        3.36186110       9.11777730      10.06328503      -0.67702734      -0.54602929      -0.17385200      -0.00424550       0.11158581      -0.07544962
H       14.57208700       5.92244643       6.83620194       0.24735011       0.24114696      -0.13356400      -0.07551967       0.03780662       0.08722171
H        5.10325296       0.53455165      11.10895545       0.32839817       0.82635316      -0.51601470       0.06146476       0.09746886       0.06276834
H       13.91130277      13.47592257       8.67072295      -0.32919178       0.62286984       0.40841416       0.03532387      -0.11148738       0.07073344
H        1.66135657       8.48389469      10.17742893      -0.17664382       0.36320925       0.45375851      -0.03191697       0.06459542      -0.08245180
H       17.57119537       4.70435389       3.79728898       0.14704539      -0.64775931       0.36913667       0.04659440       0.26078060      -0.05151669
C        6.29515496       1.57563707       9.71060520      -0.47555404      -1.51316195       0.84722703      -0.60484193       0.34018301      -0.14411802
C       12.87094133      12.10790916       7.60396461       1.01287718      -0.37709160       0.45460729       0.18359380      -0.41651255      -0.35006621
C        2.88330315       7.24630850       9.16749610       0.47827133       0.56644635      -0.64003532       0.52015132       0.35760009       0.01037352
C       16.45260379       6.15015806       7.58502215      -0.42835867       1.05893711      -0.87488283       0.85652463      -0.33724707      -0.17096798
N        6.38123282       2.45674070       8.70522577       1.05598073       0.95576301      -0.81081025       0.02234391      -0.06943925      -0.40394835
N       12.83534308      11.01004603       6.89203086       1.48720336      -0.54126893       0.22001155      -0.35995304       0.02618183       0.42865672
N        2.73508514       8.43215426       5.40755098       0.09656186      -0.12288666      -0.17912277      -0.19017032       0.69446906       0.25933028
N       16.52700575       4.97505687       8.16255740       1.27505131      -0.55935525       0.36006004      -0.18926735      -0.25076540      -0.91630303
N        5.20446001       1.40567642      10.50227343       0.37128133      -1.80043264       0.35522129      -0.55313275       0.62489754       0.00344389
N       13.94712188      12.58256272       8.19632322       0.78062830      -0.58818324      -0.05417259      -0.84292638       0.23098094       0.15242565
N        2.62794204       8.37101663       9.83715869       0.62480983       0.00517961      -0.08722045      -0.28090789       0.38541426       0.07709039
N       15.40137148       6.55322587       6.90026782      -1.14380314      -1.53519063       0.71435785      -0.15265501       0.62222728      -0.17089953
Pb       0.72461986       2.85962355       7.13721062      -0.13365424       0.09916394      -0.12755649       2.43744723      -0.48699590       3.20603100
Pb      18.78047674      10.82247769       9.87070866      -0.22453684      -0.19098526       0.29433866       0.82644978       3.17745635       1.46385775
Pb       8.60104212       8.78441253       7.10867684      -0.14596860      -0.12780043      -0.19026457       1.31793203      -0.86768305      -0.66977471
Pb      10.57270655       5.04555593       9.41233884      -0.11943663      -0.03614378      -0.09556642       1.39674284       2.18433663      -4.15413955
I       39.77296136       4.14451035      10.63839862      -0.02261005      -0.01257263       0.03078259      -0.19456960       0.24940457      -0.58865903
I       39.75123770       8.37443662       8.26833154      -0.01551401      -0.13837106       0.03087186       1.38826015      -0.32204735       2.88446334
I        9.57547148      10.51882363       9.48675743      -0.04125075       0.17880312      -0.01118225       2.11105241      -1.37372452      -0.06540421
I        9.72797043       3.10011696       6.85712514      -0.24267212      -0.18904951       0.32913354       1.44450391      -0.75635777      -3.29424596
I       17.51000733       1.16687913       7.46377265       0.25624568       0.19545775       0.10552588      -0.29525292       1.34482781       0.27503884
I        1.47353753      12.47107694       9.61070947       0.27398993       0.01980739      -0.06253624       0.34902733      -1.02433503       0.85327748
I       11.65048220       7.13783116       6.94819046      -0.17752146       0.06848609       0.15173519      -2.06098000       0.51442997       1.92491837
I        7.56109835       6.69806562       9.48307402      -0.06560711      -0.20012044      -0.24468754       1.72107808       0.80363289       1.17592924
I        3.70847958       3.90901746       6.96476615      -0.20947293      -0.03152120      -0.16605116       2.42030129      -1.73528975       1.75968049
I       15.82731034       9.67045554       9.80971212      -0.22508935       0.03665767      -0.17585837       1.32963434       0.56149334      -0.10437313
I        5.61586378       9.95960731       7.17134038       0.16235578       0.01484846       0.03119925       1.39296357       1.59514713       0.33819529
I       13.29466461       3.83929565       9.78590884       0.38704437       0.02490204      -0.02604290       1.80600380      -0.32682832       0.85905097
H        7.05158287       1.18119410      14.28565194       0.92894294      -0.97260143       0.33451749      -0.14596131      -0.02534895       0.00399148
H       11.72365133      12.56130384      11.86412023       0.34379745      -0.06770814       0.25436715       0.05270873      -0.17824499       0.05413597
H        1.76977046       6.67238380      13.71435378      -0.14407602       0.43837387       0.03700128      -0.07291597      -0.09722046      -0.05634128
H       17.55895908       6.50560476      11.84701846      -0.31420588      -0.23198063       0.20589634       0.10492741      -0.26001619       0.08596835
H        6.98191753       2.52890881      17.54405464       0.59893989       0.00441169      -0.10878168       0.07211383      -0.00517180       0.07605098
H       11.83799191      10.46685053      10.74129965       0.48154106       0.33474699       0.62451084      -0.08530272      -0.03723009      -0.08807027
H        3.81789602       5.96747321      17.41912409       0.06495831       0.94173632       0.47714886      -0.00621285      -0.19523827       0.09946734
H       15.57245348       7.61504638      11.12680601       0.17449706       0.69651878      -0.38094193       0.21041770      -0.00326992      -0.07257958
H        4.07990693       1.51719210      14.12812871      -0.42322249      -0.04536354       0.16162796       0.10976612       0.17270534      -0.16057623
H       13.51747278      10.19134358      11.23832356      -0.59671062       0.45707039       0.42045408      -0.11006317      -0.07280708       0.12141958
H        4.53757506       7.59881718      17.83819804       0.36390022       0.10071542       0.03977399       0.02863483       0.29457181       0.06375095
H       14.46756372       6.48296328      11.79039088      -0.89744064      -0.78237530       0.18232884       0.15695615      -0.02996878       0.09023515
H        5.44260319       3.43917911      13.15075182       1.67878434      -1.35646155       0.21928896       0.00547914      -0.12713851      -0.14597849
H       14.53268424      11.76788129      12.74477359      -0.15130924      -0.18752921       0.00434591      -0.07524571      -0.22150501      -0.12129902
H        4.69164331       7.38967388      13.67982901      -0.08350995       0.12824804      -0.08977099      -0.11014196      -0.11700315       0.00631313
H       15.50683531       4.51609089      13.01546434       0.19996740       0.13740043       0.09199553       0.04432228       0.05646085       0.17869733
H        7.26079173       3.13325184      13.25271234       0.17430820       0.18159231      -0.49577408       0.07729986      -0.01854311       0.01299423
H       13.73445279      13.25245657      13.13692583      -0.46631976       0.16371448      -0.15764415      -0.16542134      -0.02220100      -0.00612780
H        3.79742548       6.11539255      12.84894430      -0.09523868      -0.00147589       0.06433629      -0.00654451       0.03653043      -0.02303514
H       15.02152333       7.42053515      15.85287675       0.59298642       0.94815734      -0.48306458      -0.09273050       0.07060742      -0.15616880
C        6.11282513       1.64037991      14.06585942       0.99175646       1.72259655      -1.76764489       0.77308479      -0.60278388      -0.24264504
C       12.63277046      11.91120864      11.97879767       0.33934189       0.75921140       0.77269889       0.34194821      -0.35929335       0.03182150
C        2.62094280       7.34369226      13.95064960       0.08725523      -0.08119685       0.33285387       0.00079462       0.18601184       0.43544177
C       16.52814836       6.08825767      12.06744141      -0.14771671      -0.70427956       0.51426727       0.07979667       0.16156932       0.69656298
N        4.98069696       1.07423826      14.39460952      -1.37418464      -0.60554510       0.66208741       0.04459211      -0.34445585       0.73859957
N       12.62173634      10.71140202      11.43078638       0.06706233      -1.50877587      -1.80456394      -0.08632610      -0.19388849      -0.30811497
N        3.74387517       6.93079828      17.87943413      -0.39403160      -0.98429831      -0.13499797       0.21941263      -0.02630973       0.08397033
N       15.45268509       6.75006948      11.64072899       0.30974138       0.45978022      -0.37848763       0.08044356       0.52804939      -0.03050395
N        6.26158413       2.76490248      13.35756646      -2.17244829       0.50633243       0.96286257      -1.11141839      -0.30857043       0.37854228
N       13.67982005      12.33463920      12.66980554       0.01554145       0.05686572      -0.21063598       0.94751052      -0.01338284      -0.48238719
N        3.77477199       6.96365670      13.43197272       0.03553783      -0.11144814       0.08284962       0.56638987       0.08540858       0.23578260
N       16.42390900       4.94595532      12.75512925       0.58610424       0.96077995      -0.51325174       0.04324762       0.50366165       0.49912987
Pb       0.30873365       2.83283219      11.86611467      -0.09002289       0.09516389      -0.10657209      -2.45190372      -0.36592194       0.93776194
Pb      18.28998978      10.74745173      14.67842380       0.04663057      -0.16223297      -0.12073269       0.50454485      -0.60405260       0.45326994
Pb       8.20385680       8.59184007      11.85805035       0.01648105       0.15936546       0.03472563       1.20919996       1.05315308       0.96805683
Pb      10.48637916       5.03606154      14.04329968      -0.03090784      -0.20015618      -0.10340952      -1.86263112       0.38216540      -2.57145328
I       39.72853916       4.17134545      15.47612968      -0.08572484      -0.06345262      -0.01691515       0.87538311       0.36918175       0.27982951
I       39.65610494       8.39475853      13.06378625      -0.00040506      -0.01890543      -0.16233906      -0.87881282      -1.02453854       0.54483762
I        9.51694899      10.61094390      14.09837763      -0.11961011       0.05606797       0.16790947       2.39921362      -0.31730272      -0.44168477
I        9.44721855       2.95339413      11.59467517       0.05031655       0.10534729       0.08445099      -0.92397194       0.70525789      -0.70900063
I       17.47973740       1.02629765      12.20212089      -0.13264029       0.19339593      -0.06512043      -1.53877891       1.84795567      -1.09590390
I        1.38990096      12.47360954      14.17859997      -0.01781398      -0.05750873       0.08036430      -1.13261333      -3.09924875       1.09005278
I       11.30841297       7.07344396      11.85159473       0.10556415       0.27336770      -0.22733503       0.46694190       1.54837364       1.23017562
I        7.27184524       6.47180198      14.03366199       0.21057203       0.03272515       0.16413904      -1.41530888       1.47901389      -0.26114245
I        3.19649471       3.85334566      11.45476145       0.25077090       0.32960267       0.20648622       2.06900318      -0.39593073       0.36121449
I       15.39449754       9.64268654      14.26758649       0.00847172      -0.13118922       0.17004335      -0.30102811       0.33490782      -2.09047056
I        5.27707594       9.87723025      11.91387167       0.20177473      -0.03147948       0.04066922       1.52733546      -1.25052877      -1.41302612
I       13.39482089       3.76505639      14.12810921      -0.09853569       0.07690052       0.22017337       0.17362549      -1.34322357       1.13079177
H        7.42017009       0.93690103       0.55908660      -0.38515045       0.62265708      -0.11188968       0.14400950       0.04103341       0.12986820
H       11.69780632      12.59672321      17.14906930      -0.85369872       0.60334025      -0.29792460       0.28185873      -0.05261499      -0.06811480
H        1.79609681       6.48461755      18.39073311      -0.42915372      -0.36053339       0.24132699       0.16872773      -0.09524634       0.04362278
H       17.02202471       6.82657282      16.98964538       0.28564304      -0.14614982       0.28700015       0.10666855      -0.02922427      -0.08841872
H        4.91358564       0.13141291      14.85077202       0.21623510       0.48717508      -0.18661056       0.03652400      -0.15601824       0.14531218
H       11.71517442      10.68100938      15.80610763      -0.72121865      -0.27522066      -0.45592878      -0.03434629       0.17977440       0.00069827
H        1.53013337       8.64067962      15.14839578       0.53244044      -0.23318910      -0.25794750      -0.02731081      -0.18930026      -0.03121517
H       17.17194059       4.69071712      17.98229942      -0.76732595      -0.11216839      -0.13527624       0.03702963       0.01674674      -0.09708685
H        5.35746562       2.98007510      17.67875111      -0.69807015       0.01768100       0.20382487       0.12669524       0.17849100       0.03393691
H       13.44757201      10.40758838      16.07655086      -0.85429570       0.51012824      -0.04823590       0.03576670       0.00838478       0.13309154
H        3.30229784       8.93048577      15.05109145      -0.49634059      -0.11547393       0.01486224       0.04554019       0.00223689      -0.32904996
H       15.49768722       4.15423922      17.43869798      -0.04015942       0.16973521       0.29797517      -0.16095874       0.12698139       0.12199094
H        4.60460159       1.94375746       0.94509133      -0.44458175       0.72100378      -0.04671953      -0.01174120      -0.16261620      -0.02309459
H       14.60749703      12.06744292      17.62461432      -0.56497584      -0.02331808      -0.37760839      -0.08613267       0.04967846       0.03646733
H        3.63016169       9.17023538       0.69986342      -0.67702734      -0.54602929      -0.17385200      -0.00424550       0.11158581      -0.07544962
H       14.30378641       5.86998835      16.19962355       0.24735011       0.24114696      -0.13356400      -0.07551967       0.03780662       0.08722171
H        5.37155355       0.58700973       1.74553384       0.32839817       0.82635316      -0.51601470       0.06146476       0.09746886       0.06276834
H       13.64300218      13.42346449      18.03414456      -0.32919178       0.62286984       0.40841416       0.03532387      -0.11148738       0.07073344
H        1.92965716       8.53635277       0.81400732      -0.17664382       0.36320925       0.45375851      -0.03191697       0.06459542      -0.08245180
H       17.30289478       4.65189581      13.16071059       0.14704539      -0.64775931       0.36913667       0.04659440       0.26078060      -0.05151669
C        6.56345555       1.62809515       0.34718359      -0.47555404      -1.51316195       0.84722703      -0.60484193       0.34018301      -0.14411802
C       12.60264074      12.05545108      16.96738622       1.01287718      -0.37709160       0.45460729       0.18359380      -0.41651255      -0.35006621
C        2.61500256       7.19385042      18.53091771       0.47827133       0.56644635      -0.64003532       0.52015132       0.35760009       0.01037352
C       16.18430320       6.09769998      16.94844376      -0.42835867       1.05893711      -0.87488283       0.85652463      -0.33724707      -0.17096798
N        6.11293223       2.40428262      18.06864738       1.05598073       0.95576301      -0.81081025       0.02234391      -0.06943925      -0.40394835
N       12.56704249      10.95758795      16.25545247       1.48720336      -0.54126893       0.22001155      -0.35995304       0.02618183       0.42865672
N        2.46678455       8.37969618      14.77097259       0.09656186      -0.12288666      -0.17912277      -0.19017032       0.69446906       0.25933028
N       16.25870516       4.92259879      17.52597901       1.27505131      -0.55935525       0.36006004      -0.18926735      -0.25076540      -0.91630303
N        5.47276060       1.45813450       1.13885182       0.37128133      -1.80043264       0.35522129      -0.55313275       0.62489754       0.00344389
N       13.67882129      12.53010464      17.55974483       0.78062830      -0.58818324      -0.05417259      -0.84292638       0.23098094       0.15242565
N        2.89624263       8.42347471       0.47373708       0.62480983       0.00517961      -0.08722045      -0.28090789       0.38541426       0.07709039
N       15.13307089       6.50076779      16.26368943      -1.14380314      -1.53519063       0.71435785      -0.15265501       0.62222728      -0.17089953
Pb       0.45631927       2.80716547      16.50063223      -0.13365424       0.09916394      -0.12755649       2.43744723      -0.48699590       3.20603100
Pb      18.51217615      10.77001961      19.23413027      -0.22453684      -0.19098526       0.29433866       0.82644978       3.17745635       1.46385775
Pb       8.33274153       8.73195445      16.47209845      -0.14596860      -0.12780043      -0.19026457       1.31793203      -0.86768305      -0.66977471
Pb      10.30440596       4.99309785      18.77576045      -0.11943663      -0.03614378      -0.09556642       1.39674284       2.18433663      -4.15413955
I       39.50466076       4.09205227      20.00182024      -0.02261005      -0.01257263       0.03078259      -0.19456960       0.24940457      -0.58865903
I       39.48293710       8.32197854      17.63175316      -0.01551401      -0.13837106       0.03087186       1.38826015      -0.32204735       2.88446334
I        9.30717089      10.46636555      18.85017904      -0.04125075       0.17880312      -0.01118225       2.11105241      -1.37372452      -0.06540421
I        9.45966984       3.04765888      16.22054675      -0.24267212      -0.18904951       0.32913354       1.44450391      -0.75635777      -3.29424596
I       17.24170674       1.11442105      16.82719426       0.25624568       0.19545775       0.10552588      -0.29525292       1.34482781       0.27503884
I        1.74183812      12.52353502       0.24728786       0.27398993       0.01980739      -0.06253624       0.34902733      -1.02433503       0.85327748
I       11.38218161       7.08537308      16.31161207      -0.17752146       0.06848609       0.15173519      -2.06098000       0.51442997       1.92491837
I        7.29279776       6.64560754      18.84649563      -0.06560711      -0.20012044      -0.24468754       1.72107808       0.80363289       1.17592924
I        3.44017899       3.85655938      16.32818776      -0.20947293      -0.03152120      -0.16605116       2.42030129      -1.73528975       1.75968049
I       15.55900975       9.61799746      19.17313373      -0.22508935       0.03665767      -0.17585837       1.32963434       0.56149334      -0.10437313