768
Lattice="25.888783465013457 -0.26065579461610544 0.6964381020346223 0.2808865365786464 25.92206712803773 0.0706842229014887 -0.6430174188924329 -0.04221809821815645 25.838360985299012" Properties=species:S:1:pos:R:3:forces:R:3:momenta:R:3 energy=-3638.6402036793093 stress="0.0 0.0 0.0 0.0 0.0 0.0 0.0 0.0 0.0" pbc="T T T"
H        9.25869044      13.48440289       3.59622239      -0.35487631       0.00473855       0.07858045       0.01908779      -0.15340502      -0.15288168
H        8.94613066       4.72681979       2.41197824      -0.17924152       0.04879073      -0.32125682       0.02568870      -0.02880484      -0.13433823
H        8.28579726       4.36401986       8.67623858      -0.57595135       0.36415682       0.32205550       0.06983370       0.03106640       0.12681610
H        7.53997586      13.73420327       8.62133453      -0.10465447       0.86950233      -0.77715172       0.20302538      -0.01317274       0.07946924
H        7.92856172      13.67313740       1.65525891       0.02401463      -0.60294674       0.49788823      -0.04883052       0.07846495       0.04107206
H        7.39461886       6.12669163       1.00277426      -0.18661895      -0.21026627      -0.45380459       0.05108484      -0.07554808       0.07975323
H        1.44136619      13.81600182      11.01187292       0.07767231      -0.48537289      -0.69100478       0.11938610       0.15970811      -0.05399580
H        9.60935329      13.84753057       9.93978311       0.66008501       0.40805948       0.13772985      -0.08476941      -0.16463778      -0.05681155
H        2.97996513       4.55470657       1.97999083      -0.33493858       0.55997001      -0.07674439      -0.03316747       0.03523637       0.08868501
H        0.02835415      11.40174634       2.96570879       0.31053214       0.30848331       0.00979754       0.02099877       0.09593155      -0.17765665
H        0.43798661      12.35996094      10.59600089      -0.19367949      -0.42004024       0.03850868      -0.17265208       0.09364063      -0.00594900
H        9.59257806      11.93277471      10.52113847      -0.20734005       0.25075460       0.00126288      -0.02035406      -0.07025281      -0.08082745
H        1.44013137       4.30352007       3.90215971       0.47815671      -0.71925212       0.29575628       0.00832851       0.07889668       0.04983056
H        2.23604748      11.17891270       1.29784618      -0.18068958       0.57153514       0.60247788       0.03883342      -0.12138175      -0.18662107
H        1.37204621      10.88470241       8.54749133      -0.24342428      -0.01931274       0.41113473       0.02956831      -0.22140081      -0.06024386
H        2.02310461       7.08561956       7.52349537      -0.30655401       0.98347093      -0.19411587       0.21079831      -0.08002814       0.12001425
H        9.24580129      11.52499518       5.04024842      -0.07039917       0.30658030      -0.54971220      -0.10302275       0.26813518      -0.09008052
H        3.47686444      12.40170881       1.57702007       0.64739776       0.51412173       0.04253932      -0.11041891      -0.05970413      -0.08566330
H        9.38997319       5.33145891      10.42004972       0.05237109       0.24035422      -0.03046005       0.07149992      -0.01055867       0.16858301
H        2.96782284       5.68438105       6.98825076      -0.89726424       0.32620218       0.91245364       0.08230817       0.34481531       0.04572449
C        8.56061414      12.62506198       3.35110539       0.98079111       0.55115365      -0.17918272      -0.71972084       0.48058810       0.02584242
C        1.93399431      12.54069393       2.93651970      -0.06040852       0.09557906       0.45509336       0.38160300      -0.32811619       0.17042123
C        2.15314538      12.70633007       9.35611905      -0.36425062      -0.66203613       0.23751075       0.53348321       0.23452004      -0.01649629
C        1.90882822       5.50112529       8.78107691      -1.49878960      -0.00406367       1.67350582       0.40407587      -0.16961789      -0.37837260
N        2.39054795       5.39916997       1.76437828       1.16697676       0.37580731      -0.82984805      -0.11745286       0.44036068      -0.77838134
N        0.68982257      12.18019420       3.38446147      -0.71058402      -0.45940478       0.15056765       0.55786418      -0.48786016      -0.59251969
N        1.29261442      12.94890134      10.38695771       0.15220709       0.72821135       0.23441785      -0.29866811      -0.45232597       0.73192749
N        9.10582711      12.84959346       9.96681155       0.01926250      -0.77049037       0.41755648      -0.47423800       0.22510714       0.47946683
N        1.06267895       5.19763811       3.63865889      -0.63545903      -1.01356816       1.26550169       0.03260772      -0.24025949       1.67586416
N        2.58623490      11.99520694       1.90292531      -0.47542509      -1.10090920      -0.68812894       0.06875207      -0.12466803       0.05730965
N        8.66855350       5.92547122       9.98124251       0.13752876       0.17993885       0.25892049      -0.51966626       0.19590054      -0.35554926
N        2.33676762       6.15297608       7.73548198       1.39571672      -0.98068847      -1.38548354       0.25052271       0.12741795       0.17101474
Pb       4.65144889       2.69840463      12.28228683       0.26463079      -0.05880559      -0.01712181       1.15847932      -0.48572230       2.02222815
Pb      24.32891691       2.27694718      13.08827548      -0.27116361      -0.06028130      -0.01162602       2.91473961      -1.84115424       2.56357959
Pb       5.14109629       9.07067775       6.04423636      -0.02205136      -0.06948296      -0.24842482       0.43331503      -0.42830463      -1.56316578
Pb       4.93506864       2.61914618       5.82048534      -0.15211563      -0.03843571      -0.06420341      -1.39562934      -2.04140571      -0.16458294
I        7.78942641       2.75958336      12.97907746      -0.03831474      -0.22496705      -0.03369873      -0.25977884       1.79912667       0.03602985
I        1.63414467      15.93659780      12.11494161      -0.07062155      -0.00935894       0.14637786      -1.77306015       0.12036954      -0.05752347
I        1.70828101       2.50499253       5.82537756       0.03244445      -0.11974875       0.08698052      -1.05823759      -1.65140240      -0.84474148
I        8.22299697       2.56272927       6.05701145      -0.24852108       0.00391119      -0.03531807      -0.50262056      -0.50367805      -2.26311838
I        5.05036235      12.36711300      12.58063605      -0.06906979      -0.12720665      -0.11829152      -0.73575715      -0.61180170      -0.56717863
I        4.58680545       5.77203508      24.97896428      -0.02302623      -0.11714266       0.09878257       0.18743764      -1.02456604      -0.66310372
I        4.99244740       5.69001053       5.37729566      -0.04377823       0.19277712      -0.06324942      -0.59114356       0.35839084      -2.26207907
I        4.96936738      12.24074688       6.20324066      -0.01883976      -0.30151966       0.01542014      -1.80129392      -2.06939841       0.29558176
I        4.74113212      15.08238995       2.64512549       0.06493215       0.05508839      -0.15492457       0.76114410       0.81692451       1.51625878
I       24.38305965       2.48954889       3.29222276       0.03512041      -0.03323043       0.19621396      -0.65651600       0.19086958      -0.25740349
I       23.93216142       2.14971788       9.78847769      -0.01575517       0.04784971       0.06759019       0.35076133      -1.43446179      -0.77044652
I        4.95234441       2.72006684       9.02200945      -0.05363276      -0.00435414       0.08824935       0.03998943      -1.20103816      -0.23508965
H        0.87863946       6.69696668       2.33086870       0.12125415       0.71656683      -0.23119297       0.01842819       0.14939637       0.20523684
H        2.48250305      13.36316653       3.53414357       0.01483645      -0.06529176      -0.34191993       0.02648264      -0.07183970      -0.10676049
H        2.97295196      13.45935171       9.22201345       0.23765547       0.04043505      -0.23441180      -0.09002738       0.00254406       0.08419018
H        2.13941748       4.42356515       8.96676967       0.99903840      -0.66305030      -0.31807869       0.02353419       0.03340827       0.02257550
H        2.78100947       6.07321104       1.05055025      -0.45431356      -0.76317210       0.66976549       0.29859577       0.10487444       0.07446396
H        0.27030845      12.67646672       4.21887795       0.36677110      -0.11280716      -0.24802325       0.12821806      -0.09035871      -0.04005558
H        6.34112396       5.33069539       7.69354936       0.22565273       0.41011888       0.05027549       0.07651228       0.11240457       0.12054084
H        0.70822222       5.51634407      10.55423285       0.51181270      -0.27189809      -0.39341101      -0.18056813       0.10632588       0.08839593
H        7.24345776      11.93817037       1.78840588      -0.06560456       0.08550901       0.29568777       0.17224537       0.04351570      -0.05896097
H        7.06328036       7.28513762       2.51033115       0.10035558       0.30393346      -0.41069434      -0.14818489       0.01777734       0.13135508
H        6.57935609       6.93223309       8.56190130      -0.19746014       0.11343908       0.09368558       0.10990230       0.16282686       0.06030288
H        0.65841770       7.00873723       9.64728155       0.84610215      -0.76481617      -0.19888597       0.02687467      -0.01253637       0.07993888
H        8.08140309      10.64505447       3.97770623       0.42539235       0.98091313      -0.24417176       0.10793517      -0.16148147      -0.01840390
H        8.34159091       6.85511243       4.67057015      -0.16120920       0.08080952      -0.07662463       0.15835656       0.08262682      -0.04228254
H        8.55292169       6.90585504      10.33750502      -0.09522071      -0.14207150       0.03319779       0.08741343       0.16619739       0.03088444
H        7.44136376      10.58796456       9.73154344       0.04004650      -0.47112845       0.13879628       0.12039943      -0.02692161       0.05309525
H        0.27163188       5.46366573       4.22968551      -0.07805362       0.44987311      -0.19836048       0.11014078      -0.15128068       0.01567326
H        9.37748046       5.45728158       4.79208529      -0.09104945      -0.26695338      -0.37919823       0.04409706       0.03800850      -0.21343698
H        2.81467167      11.56099317       7.76999158       0.29986146       0.18163038      -0.23102477       0.00643409      -0.05047499      -0.26148568
H        6.10427502      11.54231049       8.59090907      -0.45696827       0.54713354      -1.50430923      -0.14485593       0.08436298       0.01596470
C        1.45354706       5.81666171       2.58286800      -0.28435736       0.71789757      -0.93057547      -0.36397416      -0.03240960       0.22014508
C        8.44824467       5.66544533       2.81994666       1.09017315       0.00379307       1.03575643      -0.06190514       0.41239930       0.07641614
C        7.93408088       5.38026109       9.02354232      -0.35863316      -0.11665642      -1.08563714       0.44701655      -0.08838875      -0.62525571
C        7.91753383      12.75242074       9.19403174      -1.24484773      -1.57839742      -0.11350369       0.48024632       0.10359148       0.16493849
N        7.80539770      12.75737030       2.24063154      -0.17183628       0.48091711      -1.00023077      -0.05384811       0.01176043      -0.13125499
N        7.70750619       6.49024343       1.95951901      -0.81739730      -0.31508883      -0.12268120       0.30926349      -0.56668615      -0.38601924
N        6.92129750       5.97030187       8.35559296       0.94734159      -1.11680010       0.50682644       0.13697950      -0.21239367      -0.17316311
N        1.11317582       6.04716143       9.73509770      -1.10729514       1.37202273      -0.08460688      -0.25273810       0.02250190      -0.22556176
N        8.66749632      11.53415328       4.12844170      -0.61955350      -1.81255943       1.10155330      -0.14004390       0.19183819       0.72878282
N        8.68524890       5.96418610       4.18695820       0.33587156       0.30192221       0.74659933       0.67026205      -0.41525410       0.79799160
N        2.12177592      11.62060537       8.53941634      -0.06894086       0.56365900       0.07676608       0.18451284      -0.59126238      -0.06705629
N        7.18308570      11.48169756       9.06995935       1.27850598       0.73579638       1.71684185      -0.53460133       0.02219417       0.06247278
Pb      24.22713034       8.72803719      13.33087928      -0.09703995       0.20337720      -0.31677611      -0.88436033       1.84669849      -0.83675520
Pb       4.90810283       9.13393928      12.49389427       0.01428537      -0.04236618       0.12553823      -5.21380981       1.95796521      -2.93649268
Pb      24.23449855       2.30035528       6.64152072       0.09438741       0.03485557       0.01877765      -1.65860607       0.40174455       1.01617311
Pb      24.66110673       8.75015509       6.83549758      -0.04701588       0.08005671      -0.32534787       0.33851241       1.60953972       1.60644584
I        1.70812374       8.77157703      13.41996396       0.09443732      -0.11860232      -0.16807187      -1.89960855       0.44962887       1.53009187
I        8.18117352       9.34990195      11.34857030       0.21781590      -0.01702237       0.07965625      -1.24669598      -2.96287001      -1.15893237
I        8.37960186       8.76876447       6.51603865       0.08737638      -0.00647844      -0.02132038       0.81734251      -0.46544806       0.33552371
I        1.90221811       9.01939691       5.38630072       0.11039520      -0.04111180       0.05131264      -0.00246070      -0.39766368      -1.29753041
I       24.19932920       5.38633162      12.72428222      -0.04870388       0.04214462       0.16333537       0.34094061      -1.68299261       0.89982512
I       23.81402328      11.97454297      26.47267229       0.16217479       0.20708674      -0.12884803      -0.00228118      -1.32940908       1.13427855
I       24.71244268      11.92814295       7.31118674      -0.14363541       0.25861216      -0.10550054       1.22165161      -0.31792218       0.64411674
I       24.39189610       5.53943212       6.98353453       0.11970967      -0.20797271       0.01962376       2.00846075       0.25234658      -0.90037767
I       11.61698139       8.49182317       3.18999887      -0.05820170       0.09615371       0.16620617      -0.38295576       0.40402274       0.10029558
I        5.92074363       9.48035084       2.63514014      -0.07858643      -0.12294671       0.13752173      -1.55411389      -1.84909035      -2.02229078
I        4.53695282       8.67381924       9.13976369       0.02815613       0.11261696       0.11773121       0.32953997       1.52706210       0.34750356
I       25.34340805       9.09054424      10.00048229       0.02601769      -0.09269321      -0.09652694      -1.26312806      -1.32525812      -0.30164144
H        9.14087531      13.47661021      16.97268335       0.34771947       1.33882685      -0.29394591       0.05659300       0.01499188       0.04142036
H        8.53945290       4.13116415      16.13174155      -0.15228580       0.62171840      -0.30876389      -0.21372161      -0.23104611      -0.06755089
H        7.86477749       3.94063343      22.02141305      -0.15431770      -0.16997939      -0.06791357       0.10792900       0.14310883      -0.00058735
H        8.00210487      12.96554568      21.31274876       0.03865978       0.22782493      -0.04593067       0.19497391      -0.13978219       0.16048484
H        7.79757746      14.40568764      14.71778599      -0.09787665       0.28156268      -0.67766175      -0.03025335      -0.14308243      -0.30265494
H        7.27887481       4.89249927      14.36253053      -0.21499073       0.12172523      -0.41564794       0.11872702       0.18853491       0.08382793
H        1.04906039      13.68414626      23.81935151      -0.03582162       1.05065788       0.73535235       0.13516654      -0.26670304      -0.14819265
H        9.65535317      12.86861270      22.98941157       0.75524629       0.61249134       0.14391136       0.01407783       0.08176074       0.04975762
H        2.88964554       4.28260827      15.53177464      -0.28134334       0.05059222       0.11219358       0.01029384       0.05557048      -0.14171626
H       -0.10663415      10.89031578      15.81646995       0.10418658      -0.34252465       0.03568070      -0.06783262      -0.06265866       0.01787960
H       -0.15814111      12.29118731      23.57952676       0.72869399       0.48364267      -0.35796944       0.10257162       0.07019174      -0.00483497
H        9.00868225      11.43368225      23.87064540      -0.54449558      -0.06321940      -0.34022994       0.07190269       0.05005278       0.02770654
H        0.91221832       4.35876641      17.34507707      -0.07150848       0.36047904       0.10758372       0.04811444      -0.06876630       0.20085771
H        2.16876294      10.70920887      14.52481400      -0.13721250      -0.25309849      -0.28322732       0.13323485       0.10178951      -0.05795500
H        0.49271426      10.65759895      21.58868441       0.18518430       0.29581434      -0.05500291      -0.04889580      -0.10271891      -0.06726582
H        1.60893552       6.91255934      20.34657802      -0.26745494       0.29618772      -0.09999063      -0.14747688       0.03796984       0.30762568
H        8.64062187      10.96710517      17.84599310      -0.19246930      -0.00228948      -0.20414811       0.10309478      -0.06359102       0.26910690
H        3.25370230      12.13640704      14.63104466      -1.14556602      -0.70796378       0.21884120      -0.09810197      -0.21558717      -0.26775554
H        9.10335604       4.68583412      23.68295061       0.04459866       0.29062083       0.33403942       0.12383411       0.13894812       0.01873524
H        2.80615625       5.55890649      20.30767043      -0.47789900       0.39344246       0.33419783      -0.13725318      -0.04262336      -0.06626282
C        8.26740768      12.79152386      16.32549835      -0.94668178      -2.66325306       0.42074642       0.14429920      -0.51885267       0.28654965
C        1.47250712      12.27857575      15.76125974      -0.39378615      -0.56416758       0.89614482      -0.49928068       0.06682746       0.25012753
C        1.55702275      12.50322352      22.14578330       0.25295147      -0.69825550      -0.87214584      -0.17895115       0.19429455      -0.06243436
C        1.59934131       5.54361188      22.00683991      -0.39565854       1.14165969      -0.41177396      -0.18860905       0.64311896       0.04613390
N        2.48610074       5.22362954      15.29234118      -0.40054157       0.40774720       0.26967960       0.09304823       0.66954117       0.21453933
N        0.37076716      11.69660724      16.25791219      -0.08770606       1.26749271      -0.12371466      -0.17018868      -0.38901581      -0.26026517
N        0.76723869      12.84791531      23.22955951      -0.96974034      -1.41878273       0.13669957      -0.25323829       0.21598456      -0.35845582
N        8.90819765      12.14123481      23.07140466      -0.63444328       0.29558152      -1.06143456      -0.29887252       0.71504765      -0.27087832
N        0.82228200       5.40169283      17.01039817      -0.86797661      -0.32394171       0.31213802      -0.43059458      -0.02862200      -0.45377874
N        2.30823166      11.68650482      14.88577680       1.04826357       1.38487397       0.19036819      -0.33565928       0.00843714       0.33249744
N        8.37040743       5.34342888      23.40528818       0.20907018       0.63119341       0.64868612       0.97652453       0.07447336       0.12112716
N        1.98800012       6.04445609      20.80729547       0.76731146      -0.95611836      -0.23526699      -0.15798725       0.46512227      -0.00643208
Pb       4.53042372       2.55075335      25.14970849      -0.17038772      -0.18578552       0.06078367       0.96913439      -1.58657370      -1.42272834
Pb      23.90310882       2.34962921      26.02497631      -0.09843260       0.16262763      -0.00155276       2.16879233       1.50440486      -0.64783377
Pb       4.94846645       8.84980987      18.85678408      -0.07187223      -0.27664647      -0.03305712      -3.23835926       0.95467817      -0.73330175
Pb       4.70898405       2.31853943      18.73489971      -0.09022282      -0.01972353       0.13936373      -1.28833024       0.11213740       0.71102342
I        7.52297095       2.99030843      25.96055183       0.35098919       0.01475864      -0.08835817      -0.03369425       0.49195100       0.66663688
I        1.26827140      15.96183040      24.98353995       0.35085569      -0.05426946       0.11951216      -2.89033872      -0.19986917       2.33732730
I        1.44004046       2.32145277      19.13332504      -0.22300261       0.03455908      -0.11576161       0.29687088       0.82018952       0.41990601
I        7.85186082       1.97230567      18.75359627       0.06852063       0.11736889       0.05183174      -1.92915035      -1.50680503      -0.57623733
I        4.58403152      12.11728766      25.15795848      -0.02019119       0.17716748      -0.05773209       1.31736186      -0.89806594      -0.85893641
I        4.78564845       5.82615578      12.29765757       0.01132425       0.18438276       0.07680305      -0.72592967       1.02541017       0.33384518
I        4.69024617       5.45499365      18.45527674       0.08759472      -0.00428471       0.10001673      -0.36047685      -0.38277830      -0.66511030
I        4.46078448      11.86635783      19.12505427       0.00937334       0.22384062       0.06187357      -2.51971372      -0.39269450       0.45395513
I        4.11901511      15.11771131      15.45927761       0.02526466       0.11529508       0.26307406       1.27709428       2.74481197      -2.50453406
I       24.21751753       2.39074444      16.33038155       0.05368403      -0.11798192      -0.05614636       0.88804842       0.55877849      -0.38202543
I       23.50470829       2.21449380      22.72881766       0.01678483      -0.15137816       0.04186507      -2.73560518       2.03520832      -0.12618724
I        4.77304915       2.60519986      22.01800313      -0.05163904      -0.00058083      -0.13560332       0.54920379      -2.49750188       0.76264760
H        1.29645323       6.97326790      15.55465891      -0.47455378       0.10977248       0.20537885      -0.23905576       0.01150569       0.13073336
H        1.73385748      13.25592337      16.21589320       0.09170293      -0.17766645      -0.40207305      -0.00781342      -0.12208377       0.11241347
H        2.45784881      13.19796134      21.91967450       0.09855150       0.01685723      -0.18091496       0.16271347      -0.15635279       0.14912126
H        2.18342136       4.70874873      22.45343413       0.58950543      -1.10488511       0.01090262      -0.00403359      -0.06478512       0.11516393
H        2.92064083       5.73808036      14.51333195       0.43811552       0.10382262      -0.54955474      -0.28217276       0.02032043       0.16405897
H       -0.29642892      12.28349305      16.88927532       0.42989684      -0.29482636      -0.38136528      -0.09919990      -0.11701060       0.03549845
H        6.12200741       5.34600829      21.00928310       0.71411234      -0.09741348       0.48291870       0.02224582      -0.15192551       0.07215370
H        0.45125492       5.56945651      23.68927760      -0.25300412       0.12906217      -0.12196837       0.00329019      -0.08648920       0.02388536
H        6.80819213      12.65072727      14.50399577       0.07186299       0.22930649      -0.09339105       0.02659890       0.02311594       0.03348653
H        7.02525259       6.58336597      14.94866861       0.00680391       0.22455629       0.06813956       0.10553956       0.02160590      -0.07571140
H        6.52785621       6.65853614      22.05031901      -0.21724539       0.65560514       0.41211861      -0.08786482      -0.13005364      -0.08366671
H       -0.00606927       6.78887091      22.38318033      -1.16095495       1.74395260       0.15989915      -0.20957852       0.01511887      -0.13573853
H        7.34671490      10.44744087      16.28653098       0.38357730       1.26666591      -0.21255350      -0.07410833      -0.09095571      -0.20089062
H        8.17176436       6.93692201      17.30013172       0.10408603      -0.06829495      -0.24837245       0.02527654      -0.01866426       0.06149331
H        8.28318788       6.30472060      23.82715377       0.28571411      -0.67315442      -0.27332809      -0.16116174       0.21122007      -0.06951133
H        6.57363240      10.65996298      22.92335925      -0.01677882      -0.79908496       0.38123815      -0.07560303       0.06579261       0.17656584
H       -0.06937167       5.92199380      17.32962532       0.20851647      -0.26636369       0.41510378       0.01877203      -0.02030250      -0.05100835
H        9.15275003       5.56466050      17.84456791      -0.59104597       0.30419956      -0.53148627      -0.02482700      -0.19650655      -0.07620807
H        1.95186439      11.19541239      20.45547812       0.02473251      -0.03066492       0.16354617      -0.10810278      -0.10250650      -0.08621618
H        6.02352079      11.54025838      21.48428474       0.02264748      -0.31060137      -0.08276146      -0.09213090      -0.12085740      -0.04764468
C        1.48143429       5.89914966      15.95788478       1.57871643      -0.52500169      -1.01418461       0.00035470      -0.02744715      -0.52170038
C        8.20093593       5.23449228      16.06309268      -0.04963103       0.27557966       0.97574768       0.15507027      -0.18777910       0.06058525
C        7.64835362       4.94931929      22.39789689      -0.71353265       0.29909751      -1.20524754      -0.71519734      -0.08599293       0.34770641
C        7.91054705      12.20015999      22.13974154       0.36708617      -1.39930321       1.75104172       0.39241171       0.08239134       0.08123899
N        7.57092329      13.30409342      15.07857194       0.44489676       0.13845811       0.76421066       0.00595871       0.09878776       0.03303630
N        7.47329850       5.65995453      15.02733437       0.42592785      -0.80789949       0.21715924       0.12995086       0.46290004       0.53233866
N        6.75361685       5.71239095      21.76241186      -0.23187646      -0.71300169      -0.55894699       0.64133434      -0.36457269      -0.02299417
N        0.54628675       5.99603480      22.70623966       1.23345277      -1.70197227       0.25201520      -0.06656395      -0.39644225       0.44250721
N        8.01362320      11.33334974      16.88433933       0.07304079      -0.68769507       0.24708541       0.21110802       0.77553926      -0.36403945
N        8.53083682       5.99096192      17.09997667       0.45179055      -0.71345266       0.26403856      -0.04900569      -0.26694477       0.18690027
N        1.32293733      11.37422882      21.32578785      -0.18189291       0.30833143       0.41281221       0.84740517       0.03382671       0.86083261
N        6.80910931      11.35551305      22.17153195      -0.16563952       1.48481848      -0.91338412       0.47612650       0.52633200      -0.38486168
Pb      23.85811096       8.74715325      26.01727388      -0.07858047       0.10265919       0.16316359       0.13475433       1.52042107       1.12525668
Pb       4.52435598       8.81077470      25.20805753      -0.09979084       0.34204740       0.10955256       1.23118085      -0.14255682       3.56496053
Pb      24.11268777       2.14756217      19.56979110       0.05373695      -0.16200755      -0.03425335       3.03991104      -2.12415699       2.04736992
Pb      24.34331527       8.53436402      19.63647023       0.06032422       0.28793486       0.03408281      -0.33983921       0.12406119      -1.85975302
I        2.02887576       8.90919662      -0.20585827       0.19864977      -0.04141914       0.07658013      -0.75198220      -2.03720603      -1.79348107
I        7.96989183       9.01482675      24.81327062       0.16374643      -0.17723825      -0.03189628       1.65942829       1.95583071      -0.71594252
I        7.71576970       8.67400839      19.47704211       0.39548816      -0.05808685       0.09376858      -0.28097341       1.77657416       0.30699795
I        1.35802045       8.79619438      18.29960007      -0.01355134      -0.04242055       0.01846941       0.10390947       1.68690562      -2.43813786
I       23.81600042       5.65435576      25.89687863       0.00549271      -0.37488076       0.11301417      -0.28997380      -1.84877484       1.14590178
I       24.32225715      11.92505263      13.54602375       0.01914460      -0.08846796      -0.13224988      -1.60945784      -1.81256180       1.24063837
I       23.95140786      11.80975328      19.95169107      -0.03326734       0.02141835      -0.14331834      -0.81522919      -0.06131995       1.08251813
I       24.03783884       5.40143376      19.90273862      -0.05783550      -0.02909234       0.15621140       1.70819448      -0.13125369       1.53446783
I       11.01020654       8.43497308      16.09596870       0.00725912       0.12809369      -0.08402794      -1.77106120       0.80062386      -1.78437812
I        6.18976704       9.11145798      15.69533419      -0.11918193       0.10947914      -0.34604052      -2.72803587       1.40965189       0.14438442