768
Lattice="40.227587415121015 -0.7682833808457515 1.3263590934115383 0.394859312395313 23.52400323722727 0.25591382290307674 -0.5366011814355014 -0.10491616676151522 18.726843227480614" Properties=species:S:1:pos:R:3:forces:R:3:momenta:R:3 energy=-3604.13626897441 stress="0.0 0.0 0.0 0.0 0.0 0.0 0.0 0.0 0.0" pbc="T T T"
H        5.91670868      -0.01525436       3.81581527      -0.58427508       0.84831205      -0.06826944      -0.26182270      -0.09817202      -0.03508445
H       11.52415726      11.90986217       2.37976916      -1.05884676       0.45798019       0.40609336      -0.23119078      -0.76286463       0.05596889
H        1.64570057       6.74731007       4.35006791       1.46327096       2.32302906       0.57747488      -0.25567639      -0.11424825       0.05996449
H       16.82351104       6.76115308       1.75218255       0.40399186       1.13422756       0.07843290       0.19640646      -0.10893578      -0.07093632
H        7.04287867       2.23758795       6.60973599       0.74963766       0.89127724      -0.96631323       0.13603153      -0.20304648       0.12551286
H       11.86451158      10.07047883       1.17875505       0.88763060      -0.20800234      -0.01636105      -0.17452062       0.10535305      -0.33356735
H        3.78511521       6.08895172       6.70426374      -0.15589304      -1.33383380      -0.72027563      -0.03004195      -0.01250057      -0.28320009
H       15.09273125       7.73788995       0.71381153      -1.35000310      -1.15587021       0.09912977       0.00333261      -0.11551654      -0.08138834
H        3.28490409       1.65201496       4.70220588       1.24147377      -1.23103395       0.31816186       0.09664837       0.26385192       0.04275311
H       13.79890694      10.25683141       1.11124470       0.02613213      -0.34991835      -0.10610213       0.05130032      -0.04310353      -0.01534649
H        4.39417500       7.58034617       7.46831585      -1.65406828      -0.92491774       0.31743030      -0.10752017      -0.14068871      -0.24628882
H       13.98873707       6.18962824       1.30251073       0.54539679       1.72732284      -0.89476644       0.30327669      -0.06549957      -0.17807318
H        4.88235494       3.47164739       4.15250484       2.06658158      -0.90318937       0.57404162      -0.00900270       0.38247498      -0.14885160
H       14.84324495      12.61184315       2.43260969       0.12930699      -0.90012831      -0.14924008      -0.27385062      -0.25710658       0.26417444
H        4.44947127       7.97281210       4.56296461       2.10608439       0.77968273      -0.63376827      -0.33681847      -0.10699111      -0.22846302
H       14.98514783       4.81937119       2.99859733      -0.47431987      -0.79036428       0.28830112       0.02365041       0.43814560       0.42799276
H        6.60872740       2.91212943       3.97733803       0.09810006       0.32443211      -0.48675605       0.22874016      -0.20101145      -0.00430586
H       13.36842366      13.48691881       3.14028138      -0.65227390      -0.32551726      -0.08801615       0.44870007      -0.13109876      -0.46816658
H        3.92790974       6.46243915       3.66524346       0.17635316      -0.20333844       0.18032807      -0.33298272       0.06364211      -0.11947837
H       15.02282859       7.72796770       6.02340949      -0.51515953      -0.49111199       0.16947582      -0.29703401       0.03530759      -0.08948681
C        5.23102836       1.06023683       4.09648877       0.08800839      -0.75152817       0.83412133      -0.20233235      -0.46240364      -0.43178827
C       12.60256307      11.63076501       2.19934461       3.23999171       1.02085449       1.36876012      -0.16919438       0.60086026       0.28619335
C        2.43235356       7.68997001       4.47687423      -0.22859170       0.99120859       1.48479883      -0.59819387      -1.49971301      -0.54568366
C       15.80471794       6.39445984       1.91360967       3.25317805      -4.80913225       2.38085301       0.15785568       0.06221360       0.28732718
N        3.94501510       0.63282634       4.30032118      -0.53795445       0.56777097      -0.16285213      -0.92333069      -0.61281476       0.22204173
N       12.81631664      10.54133356       1.45136284      -0.49128031       0.33360269       0.13908973      -0.26576413      -1.03196607       0.59294684
N        3.60988746       6.78020290       7.47312074       2.89507090       0.49277093      -1.03768079      -0.47790678       0.98119753       0.76966023
N       14.85452048       6.80222564       1.19521971      -1.96285446       0.43670619      -0.26511861       0.86295818       0.91762929      -1.05109665
N        5.67038170       2.69552524       4.27794896      -0.82549749       1.26060467      -1.32739825      -0.68863570       0.83383035      -0.33698527
N       13.62764728      12.54233132       2.71212382      -1.95177752      -0.14930318      -1.47666410      -0.30299286      -0.77809725      -0.11302793
N        3.71816466       7.32710127       4.22306040      -1.45030424      -1.55512556      -0.54471542      -0.22882465      -0.34810758       0.04351399
N       15.85075143       5.25846820       2.70159739      -1.95484258       3.95782144      -2.77335442      -1.25902227       0.00472641      -0.97967371
Pb       0.61800800       3.16133965       1.58087667      -0.31743294       0.01714230      -0.49030525      -3.04210440      -4.32675927       0.27517577
Pb      18.12549064      10.19964428       4.35966110       0.14671171       0.14351966       0.65119946      -1.60135273      -5.53282110      -1.35248072
Pb       8.40464004       8.46346733       1.72276019      -0.06904411       0.89277817       0.73133680      -2.17294065      -6.13785350      -1.11012052
Pb      10.46299304       4.77792966       4.07120942       0.26668514       0.14870178       0.21847488      -6.83469049      -2.50418175       3.33432194
I       39.85101215       4.51211726       4.98707725      -0.36595385      -0.08959676       0.48503138      -1.35261225       2.67142625       6.38547420
I       38.89098025       8.34149265       3.13262899       0.27018715      -0.28433665      -0.48648952      -3.29409750      -2.23115232       6.15720193
I       10.12384318      10.23713117       4.22274029      -0.17171418      -0.16136362       0.15379918       2.01847942       1.21621130       4.88725642
I        9.16561604       3.13793051       1.51409723      -0.66557874      -0.33264309       0.76178742      -2.29149761       1.79263511      -1.60714119
I       17.08465642       0.87348311       2.09906106       0.08600218       0.40875729       0.38686872      -1.11473655       0.34369241      -1.06942290
I        1.37436460      11.77855659       3.74901428      -0.22633130       0.76954165      -0.11162637       1.33217094      -1.96671521       3.08721524
I       11.33976985       7.22635550       1.95073420      -0.20798255      -0.27968787      -0.01319861       3.47843381       5.28310019       0.18716012
I        7.54315848       6.39770898       4.29749758      -0.27433384      -0.38826866      -0.28688190      -0.97868327       0.54123890      -1.37455514
I        3.65434898       4.05899451       1.84519026      -0.34997135       0.47575420       0.04436674      -1.34455926       1.78295382      -2.65300326
I       15.25699895       9.40547418       3.89782443       0.10162318      -0.26785609       0.06535244      -4.06179477      -0.85849773       0.97205588
I        5.46848316      10.21615197       2.90625054       0.11635779      -0.58539711      -0.31079270       2.31410310      -0.03748441      -0.04290332
I       13.23492736       3.46508780       4.64435836      -0.16153639      -0.03124797       0.09698637      -2.11129585       1.41291635       1.85770069
H        6.36600043       0.55201253       7.88861571      -0.70761075       0.59165058      -0.00424883       0.59548112       0.05522057      -0.10330885
H       11.62773074      11.81568560       7.67482034       1.31108493      -1.58905237      -0.03792419       0.20618103      -0.08701619      -0.06391407
H        1.52743137       6.25266059       7.57508687       0.47408657       0.29045923       0.70185741      -0.37641197       0.36997756       0.05691255
H       16.82130323       7.03908635       7.07855478      -1.10408281      -0.97140498       0.39843084      -0.06129068       0.19826645       0.06355311
H        3.80849488      -0.47808991       4.41586119      -0.72822560      -0.07048252       0.16797521      -0.34036944      -0.52424559      -0.20274278
H       12.29048033       9.46127974       7.05170159      -0.93957628      -0.51564239      -0.94649788      -0.01560111      -0.44067229       0.05615309
H        1.21327802       9.19027352       5.17663122       0.37597960       0.76805621       0.51338667      -0.29146545      -0.02177436      -0.20249928
H       17.03817412       4.92583745       8.18674573      -0.68685850       0.61417497      -0.53792513      -0.34756732      -0.22666068      -0.08406969
H        5.29554701       3.08965303       6.35162286       1.21268839      -1.05995444       0.42615659       0.30865706       0.38599904       0.13606907
H       14.11991131       9.76220738       7.28096651      -0.44339630       0.16588637      -0.07617171       0.09884002       0.17025305       0.30246243
H        2.99346056       9.78590025       5.01787486      -0.98236498      -0.81043461      -0.06734919       0.18958518       0.44140861      -0.08842395
H       15.33179791       4.53379592       8.18084372       0.39008617       0.77880223      -0.70780134       0.24139055       0.15436213       0.34426075
H        3.53914894       1.59410526       8.07993896      -0.61883038       1.21103543      -0.42553523       0.08331803       0.05190737       0.05995178
H       14.97184272      12.74535254       8.07443266       0.46349199      -1.19148178      -0.17999455      -0.24406177      -0.00262621      -0.00595246
H        3.09359633       8.25116638       9.54781801      -0.33189348      -0.19635929      -0.09723126       0.27537458      -0.10562093       0.03386425
H       13.92460504       6.24262813       6.38171772       2.28366120       1.60104089       0.01771027       0.24898670       0.01512975       0.27495130
H        4.23859149       0.33825378       8.98199789       0.77020798       0.66765078      -0.79780257       0.05636520      -0.10445679       0.44766150
H       13.30563327      13.77340336       8.15953784       0.05794168      -0.86015607      -0.09958541      -0.12016641      -0.16539021       0.40807405
H        1.31188277       7.85740246       9.58079444       1.94585992      -0.12035559      -0.80522052      -0.01881082      -0.36087240      -0.25648489
H       16.68713936       5.06872201       3.13327257       1.78370562      -0.74007459       1.14920188      -0.44056945       0.07412884      -0.05436300
C        5.55279654       1.31877895       7.62418544       1.79423959      -0.24668769      -0.07825435       0.27280604      -1.17639473      -0.54279604
C       12.77801819      11.42533298       7.77349578      -2.58869887       1.72932360      -0.81103630       0.29426894      -0.90017558       1.69608924
C        2.40119394       6.86306588       8.03348747      -0.05632538       2.56710585       1.23070501       0.19522114       0.38405659      -0.51947245
C       15.91049735       6.34987715       7.19548341       0.56953283       1.99692439      -1.78228619       0.32287334       0.96616158      -0.47194856
N        5.96178265       2.29382601       6.75154064      -2.24216713      -0.52319230       1.08017136       1.46635232       0.83592371      -1.68958566
N       13.08508189      10.07409750       7.40876767       0.66692061      -0.36360451       0.40726633       0.64901019      -0.38307635       0.10357214
N        2.22752536       9.00554749       4.95690166      -1.38379391      -2.66804675      -1.71330015      -0.32673309      -0.09804642       1.34235039
N       16.08916049       5.20851462       7.81803147       0.05772942      -1.67012534       1.65697144      -0.85274759       0.63593731       0.54365717
N        4.40398409       1.12133965       8.22876236      -0.96299438      -1.69233019       1.12417688       1.36747110       1.68769192       1.49374021
N       13.68120020      12.53874112       8.17797432       0.93417686       2.57272581       1.29709760      -0.99239640       1.17042087       0.79836612
N        2.27887760       7.78641356       9.06123222      -3.03286923      -0.76604852       0.54783120      -0.33723510       1.48188175       0.30616992
N       14.83835630       6.84172287       6.55355921      -0.73283450      -2.29641452       0.79729169      -0.51643397      -0.02680214       0.00490331
Pb      -0.24870244       2.88343604       6.06129216       0.16253117       0.16172801       0.18160014       3.38955311      -4.11679701      -0.27727216
Pb      18.13447450      10.75067253       9.00667687      -0.27515603      -0.20667323      -0.16517397      -0.29189966       4.65970184       2.61562870
Pb       8.24794094       8.22825483       6.40585695       0.65639080       0.95849189      -0.07139539      -2.01818464      -0.51469621       2.45818097
Pb      10.38290570       5.15303204       8.63157930       0.39950373      -0.41250257       0.61135826      -1.89011298       1.44106843      -5.82457882
I       39.42767832       4.54044859       9.84516725       0.24253770      -0.87076030      -0.00226996      -0.50203471       0.04972785      -0.79816000
I       39.18650558       8.36762574       7.62931797       0.03510887      -0.42713836       0.01594578       1.06090501      -7.47279477      -1.96644167
I        9.28407216      10.79233886       8.64399162       0.18546801      -0.27099854       0.26608457       7.07513410      -0.28007426       0.54354084
I        9.22878860       3.05439489       6.68515579       0.48633254      -0.10391854      -0.59640884       0.46867936       6.36996715       3.18681806
I       17.04169575       0.52687733       7.26642848      -0.08241509       0.51676090      -0.30438895       1.14842734       1.53844331       1.46758889
I        1.10930147      11.88489428       8.55946033       0.19461980      -0.11236959       0.25697745       4.21253371      -2.26567276      -2.18379102
I       11.61626439       7.00240339       6.49373573      -0.33358232      -0.09322608      -0.31780273       2.06518839      -5.63804347       1.84775411
I        7.34781030       6.60522710       8.77058697      -0.02422444      -0.48962377       0.13247399      -1.53772382       0.51672874       2.16333017
I        3.00130009       3.45374795       5.75790762      -0.21543045       0.37240464       0.04723502      -0.71439485       0.45612806      -0.94583146
I       15.48184522       8.92710076       8.82774684      -0.35396566       0.03248829       0.09879557      -0.12734731      -1.27482539      -1.90711888
I        5.49297841       9.62329061       6.62912801      -0.17459100      -0.02191184      -0.06406289      -1.69580273      -0.63766468       2.38047392
I       13.15876166       3.15287067       9.25515638      -0.39832476       0.43107928       0.07622503      -1.87499758      -1.90916043       2.79301332
H        6.96908009       1.77424610      14.33302831       1.03525463      -0.39973329      -0.02831480       0.31264005       0.19649148      -0.11853944
H       11.83958545      12.49637463      10.91040068      -0.88767622       0.49746635       0.28269291      -0.14141631       0.10776370       0.14705984
H        1.49305421       6.31615529      14.04766016       0.01386872       0.42879657      -0.14862868       0.28179511      -0.32165219       0.16961743
H       16.68568558       6.27880591      10.87310639      -0.39188329       0.37658082       0.26123464      -0.27698346       0.06443097       0.43121795
H        6.48765162       3.20195841      17.28874846      -1.96794111      -0.29580565       0.91006977       0.20370956      -0.07724151       0.21233142
H       11.88709510       9.94934629      10.45748133      -0.59951666       0.14845915      -0.22945336      -0.02370377       0.12017137      -0.20639399
H        2.76112036       6.73457068      17.46310688      -0.26864714      -1.43891467      -0.50531506       0.00969618       0.28427073      -0.37100409
H       14.53420962       6.79001427      10.04484574      -0.42255564      -2.18610996       1.28888031      -0.12169275      -0.22967569      -0.21704909
H        3.36467391       0.93148551      11.81813962       0.77302589      -0.81745023       0.86494756      -0.06297086      -0.06695217       0.22188923
H       13.50412092       9.71237851      11.14178196      -0.05099785       0.03009915      -0.28216390       0.09103142       0.27186485       0.29505900
H        3.54511852       8.05629196      18.23741051       0.47076343       0.13357359      -0.18899990       0.15257834       0.17636781       0.06628045
H       13.55571408       5.53136618      11.22337440       1.03630067       0.46111700       0.02875378       0.13450341       0.30434914       0.18929956
H        4.85027741       2.77122123      11.20213694      -1.28494090       0.24523681       0.35055764       0.23082726      -0.00727142       0.24232481
H       14.61256849      11.87437939      11.71803763      -0.16679825       0.33479231       0.28204643      -0.38561339      -0.18517677      -0.26765903
H        4.25923273       6.96362846      12.90962426       0.17966052      -0.15272471      -0.25947414      -0.45888104       0.08687856      -0.51484163
H       15.44256848       4.14087688      12.97385566      -0.95935317       0.05733732       0.13336253      -0.58104370       0.11055463       0.30367001
H        6.73099233       3.18628940      12.16003999       0.89822577       0.13554448      -0.15493847       0.12817009      -0.20603584      -0.25196639
H       13.71322037      13.41164580      12.00934928       0.08506268      -1.04024588      -0.81774391      -0.00136538      -0.25890296       0.51204306
H        3.10512842       5.54675468      12.78019337       0.44631830      -1.55490452      -1.26550830       0.29389511      -0.45107880      -0.10396996
H       15.54142482       7.12006526      15.49177905       0.27771714      -0.77968849       0.49769100       0.11424289       0.14671608      -0.10397160
C        5.86730699       1.82442061      13.32988462      -2.23236795       1.34141047       0.34146758       0.14043069      -0.19255631       0.61154266
C       12.69434894      11.81576966      11.17081655      -1.51434315      -0.16041424      -0.77548493       0.70866666       0.50572851      -1.23069821
C        2.39432555       7.02655093      13.86045781      -0.59375534      -3.00924365      -0.74366881       0.02311579       0.82095435       0.54347678
C       15.76824971       5.76137554      11.43597363      -3.73240734      -0.85265553      -1.47350936      -0.37727269       0.00226390      -0.01480538
N        4.59002454       1.11427263      13.37648050      -1.09872346       1.33192997      -1.66183056       0.75638277      -0.74360436      -0.61120237
N       12.67595971      10.42043922      10.94140781      -0.05808344      -1.99370885      -1.25104950      -0.10773593       0.27505815       0.07753460
N        2.72174827       7.46469672      18.15838760      -1.59021231       1.24416934       1.80790942       0.98627450       0.24490804       0.76744209
N       14.48556038       5.99898484      10.86676278       3.56969620       0.55078068       0.92924143       0.55165258      -0.52913879      -0.13880303
N        5.77063100       2.73451339      12.27434856       1.65149964      -1.50405974      -0.15576795       0.85183917       1.65529984       1.11447217
N       13.73104330      12.40718690      11.63329244       2.84321384       2.49615308       2.87028940      -0.23847423      -0.12529234      -1.02195023
N        3.35075198       6.47392294      13.11121072      -0.45928324       2.06169155       1.34031865      -0.24801957       0.51354151       1.39042161
N       16.06852738       4.85788801      12.49375239       3.70914294       1.35438119       0.28640773      -0.21331531      -0.61233898       1.31922148
Pb      -0.12825501       2.42173562      10.70246252       0.05566416       0.86067700       0.24555190       1.72006168       2.04989309      -2.50907205
Pb      17.62566408      10.56145272      13.63675113       0.40059283       0.34071129       0.02985648       2.34510350      -1.94617819      -1.84293394
Pb       7.99574404       8.94608725      11.02783855       0.48740716      -0.49779445      -0.27178292      -3.93948958      -1.47859161       2.63192394
Pb      10.24640146       5.36782594      13.49465334      -0.06102744      -0.25683689      -0.01496650       0.43757738      -2.15848061       0.30120607
I       39.26064527       3.98790651      14.42168571       0.13862718      -0.16122331      -0.09817401      -0.27486206       2.78614651       1.40883487
I       39.22607859       7.98150592      12.10132524       0.20659066      -0.34739869       0.06891871       0.32078761       5.50633278       1.29474581
I        8.96773541      10.42399408      13.64332725       0.26181448       0.32946735       0.03562130       2.29966356       1.48890674      -0.01941663
I        9.45236393       3.24657572      11.31253500      -0.12867958       0.09301280      -0.03311082      -0.53272038      -1.22588026      -3.87975614
I       17.03330267       1.01943792      11.46257240       0.34902609      -0.30905066       0.08508757      -0.96677752      -8.24894087      -6.46721571
I        1.43331420      12.35971939      13.39485597      -0.32659271      -0.65746135       0.21892119      -0.70858736       1.44431645      -0.60458254
I       11.09621786       7.51717722      10.82842619       0.12415949      -0.40686996       0.50719333      -0.75605549      -2.72576917       2.60016294
I        7.11787733       6.40055851      13.04511411       0.21342228       0.21348360       0.42224139       5.67998471      -1.04860427      -2.86364381
I        2.80088928       3.86228211      10.71852866      -0.42122942      -0.39752363      -0.10298867      -0.72415004      -1.69431796      -4.11994834
I       15.15124983       8.84308929      13.57373390      -0.43178565       0.19215226      -0.17440549      -1.05383079       2.39465482      -3.25878466
I        4.93702291       9.04623926      11.83228792      -0.58611008       0.65593564      -0.39610730      -0.92396082       1.68268056      -1.36083473
I       12.96393749       3.78396651      14.91313116       0.05905330      -0.03380329      -0.48109997       4.01231771       0.47410142       0.05595540
H        6.82346018       1.62296535      19.12239444      -0.37308060       0.16850067      -0.64676935       0.10180623       0.02190322      -0.23270677
H       11.24388654      11.98812842      16.22034188       1.59412975      -1.34012654      -0.88053270       0.08567725       0.10117398       0.31103135
H        0.71239563       7.22935380      18.89117015      -0.44956495      -1.16888563      -0.11074003       0.09170348      -0.20367414       0.58682345
H       16.77706990       5.29361070      16.85247441       0.72145787      -0.21089052       0.16418844       0.09339222       0.28637167      -0.21786042
H        4.44403816       0.30603491      13.97577851       0.43702792      -0.62395097       0.45238426       0.32117498      -0.46602019      -0.00343069
H       11.46770890       9.92387070      14.91217700      -0.27305219       0.05661718       0.11450591       0.17677367       0.29445931       0.19370543
H        1.57693679       8.54972574      14.95172092       0.48949769      -0.40771897      -0.22288034      -0.09876054       0.03663425       0.18113471
H       15.71382798       3.01861537      17.58205880      -0.84014569      -0.00137892       0.07674130       0.16181055      -0.12120576      -0.05246329
H        4.55141348       3.02904841      17.10783720       0.38126916      -0.16008959      -0.09118871       0.01298886       0.06124552       0.05217415
H       13.08645800       9.59900111      15.32422626       1.05742195       0.16210564      -0.21023563       0.00862365      -0.25594691       0.28360003
H        3.25097172       8.88556618      14.32351746      -0.03706806      -0.15138636       0.25590450       0.20201413       0.26038943       0.10521344
H       13.74819902       3.73390939      17.13359495       1.18193398      -0.08468788       0.08693437       0.15616149       0.22718582      -0.17882962
H        3.66645962       1.18836644      18.63774885      -1.97703319       0.57804312      -0.17998912      -0.29369642       0.39276933       0.32490555
H       14.21740428      11.54767810      16.65696437       0.49002311      -0.04452013      -0.09784158       0.10735233       0.28726594       0.16241785
H        2.48907683       9.25838807      20.18855325      -0.45754787      -0.47150009      -0.58634127      -0.07600835       0.21655717       0.36504225
H       13.85197347       6.02593906      15.15612954      -0.30903761      -0.92725884       0.74623299       0.06836603      -0.00420623       0.27976818
H        4.72442309       0.10235661      19.45396373       0.72098516      -0.58083878       0.44168166       0.04065753       0.10076630       0.10439194
H       13.24732926      12.94025721      17.03988629      -0.10339550      -0.13845824       0.01057798      -0.00387991       0.30308668      -0.00966518
H        0.84262758       8.91631342      20.48880205      -1.28761898       0.04106589       0.03434012      -0.08096901      -0.16895409       0.13909488
H       17.18314394       4.87413419      12.84391987      -2.73974082       0.34558467      -1.33952670      -0.20755534      -0.33870656       0.03018220
C        5.67794275       1.80605518      18.55639029       1.91456166      -1.55854618       0.50481016       0.21452985       0.01392268       0.86779587
C       12.26005352      11.43650021      16.02124364      -0.76758173       0.99980250       0.23914522      -0.44727731      -0.26361825      -0.81440870
C        1.66258015       7.70148993      19.02808824       1.50888632       2.03531236      -1.35229845       0.13609768      -0.32920030       0.59924981
C       15.63818315       5.02119615      16.62940105      -0.48858752       3.11663439      -1.85159414      -0.03947722      -0.08985710      -0.49311572
N        5.53065971       2.77926957      17.63382418       1.08070807       0.76649672      -0.58422327      -0.69420202       0.56822795       0.30135101
N       12.32974467      10.29610547      15.33491183      -1.48932835       0.70454463       0.70402452       0.67271230       0.43791013       0.50382310
N        2.42723144       8.13412118      14.49045816      -0.10845924       2.85396635       1.00446773       0.93605531      -0.81696349       0.63966507
N       14.98789092       3.80531637      17.09976568       0.17009887      -2.89980378       1.78683652       0.71433430      -0.71874087       0.31608272
N        4.64164673       0.95218470      18.92259745       0.07146487       0.98537018      -0.32288466       1.62958699       1.29503437       0.39714533
N       13.33823017      12.05031609      16.54783190      -0.68944472       0.41382761       0.40080212      -0.80557540      -0.41263974      -0.14514015
N        1.62094848       8.79700669      19.77886910       2.36391886      -0.50364233       0.89328086       0.22142820      -0.00575529      -1.61371794
N       14.95127414       6.13802327      15.84467020      -0.30004281       1.99131043      -1.46055163       0.10477220      -1.41008941       0.81649120
Pb       0.53110481       2.91899322      15.42606185      -0.83760726       0.16872661       0.36736317       2.96540954       0.06806277       0.97080794
Pb      18.18427617      10.09764994      18.24313501       0.22271028       0.55506537      -0.14158277       2.14103450      -2.77509392       1.28390974
Pb       7.83357483       8.45793321      15.61381725       0.21488075      -0.02980913       0.51551719       5.90300106      -2.46294629      -1.82687086
Pb       9.61989330       4.98997054      18.35946896       0.48685359      -0.05011644      -0.26582421      -2.63237669      -5.03144495       3.73252989
I       39.16861858       4.14910307      19.08485802       0.30484262      -0.12782920       0.05819635       1.18195691       4.11709832      -3.32431029
I       39.45368269       8.01598869      17.26241693      -0.11076379      -0.14066016       0.04489995       1.21924084       0.39928188      -0.69459469
I        9.27497010      10.35105155      18.41835212      -0.38667670      -0.37201035      -0.49470130       3.56318339       1.48210342       3.02766001
I        8.38950472       3.29151678      15.70329748       0.55366250       0.28802266      -0.13350649       5.18766646      -0.99587588      -2.70584261
I       17.18778187       1.10282782      16.41823611      -0.29762656      -0.52632859      -0.26112892      -1.28832536       2.37247532      -0.81193919
I        0.55181928      12.38537380      18.03696861      -0.05475534      -0.18660284      -0.08808183      -0.57414257       1.15041403       2.53621126
I       10.92195347       7.11818703      16.16290119       0.07293717       0.25928611      -0.09353441      -1.12474766      -0.90176280      -5.42289142
I        6.69987186       6.66581668      18.39573806      -0.00518907      -0.49044992      -0.45078213       2.52354600      -0.81611475      -5.62488400
I        3.05305924       4.30383390      15.68448901       0.03352055       0.36821338       0.09156316      -1.72119122      -0.42926610       1.97796207
I       15.24547907       9.42275603      17.96946004      -0.31816179      -0.11170683      -0.04711830       0.40198543      -3.39439734      -1.36560444