768
Lattice="25.888783465013457 -0.26065579461610544 0.6964381020346223 0.2808865365786464 25.92206712803773 0.0706842229014887 -0.6430174188924329 -0.04221809821815645 25.838360985299012" Properties=species:S:1:pos:R:3:forces:R:3:momenta:R:3 energy=-3639.4493372243633 stress="0.0 0.0 0.0 0.0 0.0 0.0 0.0 0.0 0.0" pbc="T T T"
H        9.56587298      13.47511622       3.76222914       0.65661343       1.54468607       0.23102526       0.03319658       0.12011351       0.08932814
H        9.09496317       4.21716496       2.76257372      -0.43890444      -0.17433789      -0.25050272       0.20590779       0.07402464       0.04135799
H        8.59978473       3.92273266       9.10945276       0.17048714      -0.77234752      -1.06032145       0.13337624       0.00805622      -0.13060591
H        7.99283379      13.62844994       8.73433366       0.33401670      -0.48105317      -0.07666280      -0.06083106       0.00084945       0.12020072
H        8.32766064      13.73519559       1.60926184       0.17687248       0.23171361      -0.10785120      -0.19474739      -0.05082251       0.04792804
H        7.55063807       5.32163990       1.16696609       0.19963427       0.04217882       0.16944797      -0.04214745      -0.00929696      -0.16380721
H        1.65250971      13.04671088      11.11839092       0.19009947       1.03913022       0.85437850       0.03317685      -0.03219825       0.15893846
H        9.58407975      13.15388040      10.31775801       0.86693320       0.59063225       0.39399472      -0.13900856      -0.08364141       0.05943617
H        3.12815946       5.02757237       1.74512520       0.12336649       0.44479804      -0.06039364       0.03634341       0.11887188       0.08906026
H        0.42404336      11.19625892       2.62187247      -0.38502987      -0.37015039      -0.02644847       0.19965979       0.16295275       0.02150899
H        0.92555792      11.69649654      10.37107527      -0.36237080      -0.74078501       0.23930085       0.01338370       0.01836567      -0.23089263
H        8.87179665      11.63386395      10.80973932       0.18709480      -0.62099044       0.25366540       0.07525807       0.08371759      -0.11066647
H        1.96938408       4.42375617       3.97559776       0.16066541       0.61783983      -0.43459167       0.01743937      -0.15919697       0.01945657
H        2.38385181      11.79404279       1.03664103       0.47578238       0.99618507       0.32181218      -0.11276806       0.12165207      -0.07184629
H        1.82883763      10.82386006       8.32877537      -0.05668006      -0.06128455      -0.20702696       0.26028606      -0.10764608      -0.01504469
H        2.13295495       6.96959198       8.02812061       0.06206663       0.20116072      -0.24499018       0.05524378      -0.07757370      -0.03463190
H        9.42092432      11.52391026       5.07222870      -0.51717125      -0.57940934      -0.44293145       0.07713894      -0.28854784       0.01634644
H        3.27465511      13.34121568       1.63808140      -0.73717883      -1.17432764      -0.14283553      -0.16706848      -0.12978895      -0.14751479
H        9.89208293       5.30789880      10.58122414      -0.20657471       0.03911934      -0.10590922       0.06510284      -0.21536098       0.11650818
H        3.16689502       5.75788851       7.26838885       0.23728994      -0.19744296       0.15377569       0.06393848       0.13606190       0.05258378
C        8.88009923      12.67751184       3.41598804      -0.81985300      -2.07170481      -1.88747897       0.83335290      -1.13659643       0.20841939
C        1.74732836      12.73294317       2.79887279       0.78894834      -0.28306647      -0.63964924       0.05182997      -0.19668229      -0.51530802
C        2.45435687      12.49371495       9.37298062       1.95649891      -0.44609224      -2.38315868       0.48915791       0.11061508       0.32051068
C        2.31171836       5.32314512       9.12936869       0.26273109      -1.45780671       0.09753843      -0.23296925      -0.83146656      -0.09039258
N        2.50040856       5.84705792       1.67277637      -0.84296912       0.38978200      -0.42928310      -0.06365223       0.10524661      -0.14436221
N        0.72074244      12.01674733       3.14525981       0.19030242      -0.08211990      -0.11199906       0.01623835      -0.70223031       0.14505774
N        1.73668539      12.34560594      10.42543651      -1.54980848      -0.52671967       0.55358510      -0.89810732       0.04358658       0.16281441
N        8.93268576      12.40492319      10.15756797      -0.44736393      -0.03861963      -0.16084057       0.61820715      -0.13400158      -0.16453215
N        1.42621466       5.26658000       3.69775325      -0.15543164       0.23416520      -0.58516621      -0.44836300      -0.01243546       0.09042951
N        2.51499309      12.59523849       1.71307556       0.14677196       0.02232825      -0.05800112       0.37009150      -0.61033198       0.12372876
N        9.06343613       5.75012140      10.10635137      -0.01107526       0.26109645       0.11396592       0.50693034      -0.38089396       0.14311474
N        2.56356768       6.04008067       8.07447318      -0.00532417       0.60086472      -0.30730724      -0.49775488       0.41213194      -0.10089787
Pb       4.88528913       2.37791467      12.38827697      -0.24735323      -0.18722736      -0.13081922      -2.48978819      -3.97525116      -1.92193139
Pb      24.09738898       1.96374435      13.34160342       0.26473247       0.26923735       0.03720971      -0.47316197       2.54420885       0.20204138
Pb       5.29272497       8.89848864       5.87247414       0.19355918      -0.38230202      -0.05189185       0.01592371      -0.92788430       1.98400535
Pb       4.87924874       2.30461680       5.84831633       0.16456914       0.03292557       0.20823010       2.55125375       1.38312140      -1.97633002
I        8.06232098       2.18227045      12.70142382       0.09651365       0.01241042       0.22456568      -3.03910141      -1.16421040       2.52036806
I        1.87597032      15.77474018      12.23583468      -0.21627234      -0.20216257       0.00868767       1.81429869      -0.59175517      -0.01094166
I        1.69669616       2.12782958       6.09132433       0.13000727       0.07133643       0.00425748       0.98542048      -3.19349654      -0.36473458
I        8.07447986       2.20822725       6.60036148       0.08651009       0.02844388      -0.21207662       0.17919348       0.49018803      -0.96466866
I        4.84165322      12.18517156      12.32584815       0.06108962      -0.10256863      -0.03901847       0.05198662       0.85281689       2.81161599
I        4.94227133       5.84288497      25.04522015      -0.01930366      -0.32630243       0.09506402       2.92005830       1.06202750      -0.77343894
I        4.94427243       5.46506002       5.67657408       0.10863652       0.14747169      -0.13066546       1.50435913       0.08196410      -0.20714718
I        5.21588028      11.93297262       5.88406612      -0.05027503       0.22430913      -0.09715562      -1.34328451      -0.75896483      -1.20097356
I        5.11856399      15.51323781       2.67550229      -0.05154111      -0.25117663      -0.09079213       2.36474772       0.03184749      -0.93058946
I       24.69297019       2.44643440       3.78127252      -0.09047684      -0.07359734      -0.01426221      -0.00289464      -0.98055300       0.13447679
I       24.00748816       2.25153385      10.28875553      -0.12079737       0.00149616      -0.25056851      -1.63830420      -0.74657755      -0.21217029
I        4.83708642       2.25669079       9.09176890       0.01378858       0.04653984      -0.00579999       1.10729358       1.00126854      -1.82464843
H        0.67131408       6.78307357       2.31453018       0.15589914      -0.00917849       0.00681479       0.08853695       0.13435267       0.06152023
H        2.04573814      13.51090311       3.48908305       0.01421415       1.05779580       0.48145974      -0.05531305      -0.11493084       0.10151825
H        3.18920992      13.32894340       9.39988794      -0.16619260      -0.28679187      -0.26603284      -0.05567786      -0.04689486       0.08688505
H        2.71729986       4.27300486       9.23968207      -0.11858300       0.68238490      -0.44669144      -0.17841946       0.16035102      -0.09587412
H        2.48446990       6.47622826       0.80455526       0.03778978      -0.56496829       0.39819023      -0.02615672       0.16453765       0.05097952
H        0.23960044      12.28324617       4.00010040      -0.36044242      -0.18888663       0.34657137       0.05690896       0.00308757       0.09853731
H        6.69442136       4.85524369       7.95485894      -1.20852139      -0.76761564      -2.08837841      -0.02737048      -0.15563737      -0.00786929
H        1.22045055       4.98609752      10.75968791      -0.01838226       0.35317458       0.21351571       0.28773389      -0.06887760       0.01375464
H        7.67353200      12.01212530       1.75536939      -0.01845818       0.19611347      -0.10549775      -0.05720626      -0.03807421       0.11849684
H        7.42878106       6.73118348       2.27854935      -0.27243013       0.19017280      -0.15939898       0.06142983      -0.06101965       0.09139309
H        6.85927041       6.45835543       8.72541438      -0.09105677       0.25413922       0.00784853      -0.05324804       0.07008261      -0.02889819
H        1.09845339       6.69483658      10.11408254       0.13038202      -0.62980471       0.11601131       0.08648309       0.07172864       0.16235905
H        8.20407921      10.63691211       3.89051682       0.56074001       0.56684904      -0.15125424      -0.13621081       0.03716070      -0.04302094
H        8.51734298       6.57592038       4.54578395       0.21621584      -0.42016547      -0.00032587       0.15532943      -0.07520940       0.02314745
H        8.82246348       6.70537732      10.46175638       0.00059022       0.01241850      -0.18631403      -0.08501581       0.18214867      -0.11023370
H        6.94460233      10.86072304       9.33672069      -0.12553219      -0.56579771       0.28844819      -0.02674606      -0.12780634       0.00778592
H        0.68176563       5.50062907       4.34649349      -0.46723158      -0.00687965       0.18799198       0.03799240       0.01935420       0.06380230
H        9.56304955       5.18560880       4.81224621       0.15886935      -0.14522508       0.28414540      -0.00055222       0.06428121      -0.12689844
H        3.05400190      11.80209645       7.48332825      -0.21081295      -0.08067027       0.31609442       0.05962233       0.00604659      -0.09572550
H        6.47728329      12.00204116       8.11571957      -0.20858530      -0.01527566      -0.04581441      -0.04561661       0.12911004      -0.03578094
C        1.47279634       5.99571179       2.51095936       1.10661502      -1.18746108       1.04608755       0.69471552       0.28470802      -0.36314029
C        8.56519005       5.15704803       3.00093227       1.55904509      -0.61470078       0.38274377       0.06216086       0.25680369       0.23148879
C        8.31075757       5.02740548       9.20483315      -0.06042390       0.55963613       1.44393033      -0.47662087       0.00181447      -0.19334903
C        8.03192391      12.61299676       9.23193675      -0.74783873       0.64074209      -0.10624818       0.12994684      -0.00467805       0.57317834
N        8.27477666      12.80727303       2.13648114       0.04135058      -0.42805595       1.41595749       0.02195337       0.20999431       0.20482948
N        7.85584410       5.79569614       2.05733580      -0.93625660      -0.04985726      -0.67185631      -0.61948456       0.01040566      -0.28800490
N        7.22138946       5.48330491       8.56437738       1.38185606       0.52645662       2.06383680      -0.59279661       0.79876147      -0.16391779
N        1.52660496       5.73304555      10.10254810      -0.73950160       0.34233113       0.63269452      -0.99548562      -0.36062466      -0.34174474
N        8.89286332      11.46131811       4.11463944      -0.28166842       0.25823884       0.90786880       0.55572876       0.24383338       0.27952131
N        8.84667505       5.63096057       4.22911217      -0.47079475       1.13867482       0.32689880       0.16539149      -0.16441319      -0.04583768
N        2.41910320      11.65990200       8.29192809       0.10516939       1.08764581       0.93172080      -0.13168494       0.37262364       0.30602551
N        7.05451252      11.78924081       8.93158802       0.16757558       0.35726980      -0.55204600      -0.11691316      -0.32475950       0.11851193
Pb      24.53362540       8.52193919      13.16379155      -0.03588354       0.17197531       0.13797337       2.19653923      -0.69672967       1.32092182
Pb       5.03706916       8.82759511      12.46494078      -0.05916300      -0.04520818       0.00965259      -0.71596863      -1.56317319      -2.70908903
Pb      24.51254806       2.27232018       6.91855644      -0.21674649      -0.21519644      -0.03302730      -0.27708711      -0.98821383       1.72198393
Pb      24.70235383       8.60328489       6.73995768       0.22005452       0.03652008       0.09271737       2.99502105       0.52015568      -1.78666890
I        1.91018686       8.80757406      13.11945942       0.19651711      -0.06910219       0.10027277      -0.17840113      -1.15935198       1.20862353
I        8.45304834       9.12720360      12.15791547      -0.06251257      -0.09027615      -0.15185420       0.28325421       0.29393372      -0.93425157
I        8.60708967       8.55848198       6.81571531      -0.23561466       0.04233511      -0.11307438       1.01161967       1.27919165      -2.10204374
I        2.20657354       8.83931292       5.59771057      -0.27841117       0.06293768       0.10487640       2.42296271       1.77505723      -1.59430263
I       24.68014898       5.50309678      13.47908748      -0.10799706      -0.18102804      -0.04750449       0.49604666       0.62418634       1.27602801
I       24.30534050      11.93741173      26.26147442      -0.02751350       0.01555635      -0.07101178      -0.39472528       0.44834160      -2.16778975
I       24.58167846      11.87182660       7.03586737       0.05185277      -0.17490038      -0.05592485       0.25162216      -0.98447545      -0.29721291
I       24.70315471       5.30200595       7.23915006      -0.00996907       0.41401316      -0.05877805      -2.36901357       0.10583561      -1.08653686
I       11.47294920       8.47214966       3.20397841       0.01848767       0.00024161      -0.06970055       1.08455148      -1.92165751      -1.28013579
I        6.56437650       9.10331094       2.77583858      -0.08947565       0.09030901       0.02900331       1.38842659       0.42780636       1.45008930
I        5.19361498       8.64498264       9.34255275      -0.08140232       0.03574480      -0.23161349       0.01822812       0.80394315       2.55992519
I       25.73616162       8.77326037      10.14673746      -0.06904348      -0.03944580      -0.22132789      -1.82786356       0.36572394      -1.57459949
H        9.01963453      13.26726229      15.96153344       0.19195828      -0.06539801       0.14721735       0.03045776      -0.06223828       0.04201971
H        9.01464944       4.09412942      15.65760042       0.44797023      -0.15619823       0.04648376       0.13242982      -0.06848906       0.07352521
H        8.31290960       4.11308164      21.68578951      -0.21178016       1.05959233       0.70780292       0.05477417      -0.04032931       0.27555265
H        7.72032425      13.25837587      20.82741887       0.15607220      -0.15141189       0.61622061       0.03149520       0.14315135      -0.02930416
H        7.57715486      12.83262552      14.22970056      -0.04283066      -0.05080987      -0.37923975       0.01500305       0.16394416      -0.14660093
H        7.60925268       4.98042047      14.12022647      -0.15849550      -0.78282252      -0.88302086      -0.04740124      -0.04374068       0.02625540
H        1.46505529      13.98234083      23.57820807       0.00688147      -0.16202827       0.24252883       0.12638550      -0.02099879      -0.06080737
H        9.42277393      13.33444184      22.43105797      -0.04377053      -0.34116482       0.11451842      -0.15108184       0.02292987      -0.07761261
H        2.78474208       4.44316033      15.16223877       0.55688485      -0.66575421       0.24893509       0.32834896       0.21028194       0.11503336
H       -0.18004308      11.27568284      15.97498128       0.16567305      -0.51245269      -0.11448681      -0.01041525       0.16537792       0.03487767
H        0.10933414      12.50647345      23.39332145       0.88840320       1.03391839       0.38850663       0.23160881       0.07673267       0.14454311
H        8.87519515      11.85822945      23.46810887      -0.53843479      -0.66930361      -0.06496917      -0.03147701      -0.08065629      -0.01881568
H        1.37983847       4.31688395      17.41622018      -0.00902235      -0.42631726       0.20759055      -0.07028350      -0.05284307       0.00421721
H        2.12958656      11.19588631      14.49950185      -0.12330575      -1.15102258      -0.84792905      -0.06515544       0.18335193       0.11954495
H        0.59134828      10.66286771      21.45879649      -0.30667226      -0.77556921      -0.09218857      -0.11536275       0.08130816      -0.18974293
H        2.01140811       6.61741636      20.31810721      -0.02300325       0.05998116       0.08475153      -0.18612593      -0.11847904       0.03002728
H        9.22875813      11.72148041      17.73208953       0.15312745      -0.14362560       0.00407756       0.00751725       0.19317880      -0.05182148
H        3.20893048      12.55147791      14.80931437       0.01029689      -0.37770874      -0.24047671      -0.13984902       0.00960881      -0.16369931
H        9.58597636       5.39103858      23.36457560       0.07676671       0.00770874       0.31292210      -0.00682846       0.03207056      -0.07418463
H        3.03169370       5.21567592      20.13915389       0.33245145      -0.31212030      -0.02406411      -0.06486434       0.00368909      -0.04492075
C        8.51893471      12.28851615      15.92710485      -0.64823142       0.70645781      -0.89489644      -0.00028897      -0.00290788      -0.24682003
C        1.65059373      12.46733880      16.03858614      -0.81452223      -0.05808040      -0.19424872       0.31709169       0.53030792      -0.24292464
C        1.92963515      12.45133865      21.96624454      -0.11939194       0.32769389      -0.22066445      -0.27403673      -0.02838691       0.77286615
C        1.84018717       5.15952872      21.89874918       0.29884463       0.66441806      -1.06312442      -0.04168847      -0.12839302       0.48177917
N        2.32702211       5.34784649      15.14129396      -1.39468565       1.73795747       0.01113108      -0.53878979       0.37403862      -0.36594538
N        0.45802513      12.00501154      16.45808825       0.61284249       0.49622882      -0.34721503       0.44977188      -0.42495089      -1.06388334
N        1.22434608      12.94057907      23.15995787      -0.88461889      -1.21585575      -0.90884354      -0.21917930      -0.02967711       0.24460542
N        8.70937936      12.49306697      22.58501719       1.76201228       1.59524756       0.75294727       0.04829839       1.29521602       0.50718989
N        0.96038200       5.18810135      17.09865276       0.73466811       0.44198681      -1.01424001       0.54221924      -1.36942461      -0.17695936
N        2.36429888      12.00704342      15.02690774       0.45213190       1.54905825       0.92648256      -0.34922975       0.47999210      -0.21484523
N        8.73817869       5.83659370      22.97217060       0.13278110      -1.17184080      -1.12105320       0.67412318      -0.33746752      -0.21794401
N        2.33253734       5.69921425      20.73132390      -0.76556377      -0.74139407       1.23640207      -0.01920397      -0.51388005       0.22356262
Pb       4.75169493       2.48284706      25.33518138      -0.12129374       0.54513160      -0.05688202       1.72756282       1.27850573      -3.22900183
Pb      24.04019962       2.32051905      26.28837504       0.19472019      -0.01627729       0.12184138      -1.26643717      -2.59620650       0.82030539
Pb       4.94796737       8.59911892      18.70079288      -0.16819969       0.17378424       0.12434203       1.36754434      -1.99176043       1.52132530
Pb       4.90879250       2.27327995      18.85931465      -0.28760684      -0.15896453      -0.08940813       0.51049732       1.30847007      -1.79210209
I        7.71463536       2.16980054      26.19384210       0.27353657       0.02965856      -0.07400323       0.97963952       0.42723904      -0.87292121
I        1.53649347      15.69546173      25.38059394       0.15457442       0.10557339      -0.12731247      -1.86627493      -0.75520725      -0.66146009
I        1.53604759       2.13292684      18.92934958       0.08026739      -0.00852147       0.07051365      -1.27612877      -1.58782478      -0.72736776
I        8.03895946       2.07479162      18.89369705       0.00968786       0.00665650      -0.00595155       0.65658734      -1.54779862       0.60774662
I        4.72770526      12.08932030      25.08428350       0.09331704       0.50131279       0.01836129       0.02098876      -2.30405587      -0.08754230
I        5.06907723       5.69306239      12.39843674       0.01297462      -0.01873408      -0.01548952       0.00401341      -2.45716474      -1.54775322
I        5.04231233       5.42821619      18.57398977       0.01539283       0.17379436      -0.31182472      -0.49390704      -1.35093366       2.32633501
I        4.83155438      12.03559060      18.77572533      -0.30445459      -0.28790147       0.04913441      -1.69653540       0.04312185      -0.97312156
I        4.81086567      15.12165006      15.53988002       0.03327725      -0.13611821       0.20167007      -0.00939132       1.50344179       1.29449980
I       24.07606050       2.12397101      16.65559901       0.05592559       0.04104045       0.07222942      -1.08070418      -0.54446695       1.22068732
I       23.96852879       2.07947554      23.16964494      -0.10588895      -0.03470928      -0.15759720      -2.24021418      -1.02664073      -0.70240797
I        4.95282615       2.56398801      21.99041291      -0.05671545      -0.08710860      -0.00892039       0.24119794       0.04297893       0.18245529
H        0.91669330       6.74743954      15.69250561       0.15022256      -0.17643305       0.27586726      -0.06475603      -0.00654606       0.06655763
H        2.01272364      13.37632050      16.53882034       0.26848675       0.01568129       0.23020797      -0.05670237       0.10248107      -0.08391357
H        2.88602621      13.10496562      21.60900682       0.26061566      -0.11090095      -0.00437837      -0.06662695      -0.01364007      -0.04071458
H        2.18675402       4.12546452      22.25730450       0.15994605       0.27546838      -0.35240486      -0.04268203       0.08733019      -0.20891010
H        2.48700213       5.99272765      14.34956271       0.20250331      -0.57113524       0.17845880      -0.03405537       0.03622007      -0.04466723
H        0.02302106      12.49666770      17.25094044      -0.54318934       0.02328439       0.48613340       0.13848302       0.18899030      -0.03639641
H        6.44345302       5.24116891      20.74029484      -0.38262283       0.06157941      -0.52781671      -0.04575286       0.08164528      -0.04248516
H        0.69867932       5.27494533      23.59959157      -0.17994993      -0.06902862       0.09919411      -0.07541408      -0.13489965      -0.17273948
H        7.22457404      11.14904551      14.84562405       0.14371236       0.64979494      -0.30004038      -0.11817106       0.16532988      -0.17326744
H        7.08671083       6.27669769      15.15712117      -0.17015466       0.59067083      -0.11726114      -0.11684071      -0.07592467       0.04199320
H        6.65605931       6.66087473      21.75464159      -0.45201536       1.02670872       0.17085091       0.14454287       0.06644543      -0.06289260
H        0.56064037       6.74146966      22.59468893       0.21185303      -0.43944738      -0.19525969       0.18073508      -0.01400272      -0.03412182
H        8.14100741      10.59810613      16.95207691      -0.33091459      -0.89921606       0.07260166       0.25786404       0.05270940      -0.10096406
H        8.15274759       6.38879204      17.44128192       0.83378611      -0.94145546       0.13444542       0.06494253      -0.14865392       0.07581269
H        8.56471750       6.86054586      23.19356575      -0.06548075       0.46790519       0.59859548      -0.17152872      -0.07687687       0.12181602
H        6.58402082      10.84862588      22.35224641      -0.47434072      -0.49095915       0.10068213      -0.11213294       0.12773621      -0.08924791
H        0.21892162       5.58237690      17.68066884      -0.15653979       0.15856652       0.07646592      -0.06222740       0.03316498      -0.18804901
H        9.45002489       5.18179828      17.78646269      -0.35172688       0.05459026      -0.16931523       0.04392152       0.09874053       0.21131046
H        2.16173808      10.97368830      20.25991087      -0.22855410       0.07738514       0.36398032       0.13944432       0.08595957      -0.20920483
H        5.97184737      11.75928690      20.95481778      -1.19241264       0.17877037      -1.53843145       0.05149235      -0.04771091       0.09477801
C        1.39487272       5.79440107      15.99262287      -0.11813592      -0.32159102      -0.15261104      -0.70932215      -0.10642713       0.29184010
C        8.49986922       5.02438236      15.92599291       0.69851556      -0.83566537       0.47257629      -0.39039087      -0.15203873      -0.01945947
C        8.03409019       5.18189660      22.01098599      -0.08332191       0.17572963      -0.31207428      -0.23413874       0.22161561       0.80022950
C        7.68896163      12.49213753      21.71542077      -0.02950897       0.81078045      -1.01209979      -0.56722786      -0.04105825       0.29224908
N        7.73530848      12.06190893      14.88258496       0.06155215      -0.65342841       0.74686498      -0.13079385       0.04293935       0.16158782
N        7.73118573       5.49391227      14.96972358      -0.43595916       0.62113640       0.57705686      -0.59806598      -0.75292555       0.14686649
N        7.03021221       5.80477377      21.40041338       1.01089290      -1.75900151       0.40057088      -0.01452336       0.27759279      -0.47732906
N        0.92647104       5.74953292      22.69484578      -0.17553205       0.61429789       0.25765896      -0.22803011       0.43225485       0.53662196
N        8.67277947      11.44256398      16.90130211       0.58668788       0.58395398       0.61734390       0.72227314      -0.19728641       0.25056565
N        8.67549206       5.50953940      17.17857887      -0.88245045       1.49440994      -0.15901775       0.10406308       0.18300124       0.21709639
N        1.52364101      11.28513664      21.15745893       0.60286999       0.81084809       0.14999657      -0.20029477      -0.82132477       1.08741944
N        6.62140050      11.66800927      21.70567472       0.56911694      -0.94083721       1.18930553      -0.38028190      -0.21231413      -0.17120018
Pb      24.33191279       8.79596753      25.97884272      -0.09880260      -0.05409586      -0.00459906       0.05292607      -2.33424766       0.46625884
Pb       4.86547394       9.27373161      25.16891419      -0.01890066      -0.70163191       0.27206492      -0.64097921      -0.35890495       0.91611715
Pb      24.10683532       2.16041192      19.84004905       0.09811008       0.14981268      -0.13681482      -1.44965894       1.10190758      -0.04639757
Pb      24.18313457       8.71663391      19.82266400       0.15163431      -0.05508635      -0.24026310      -0.86150936       0.63256492      -1.43780410
I        2.36429184       9.08447879      -0.04865696       0.13185296       0.10475962       0.02132928      -1.66471968       1.83073282       0.43044522
I        8.32241620       9.24610016      24.48613957      -0.22970398      -0.02925592       0.00310414       0.58960880       1.96279652      -0.63017155
I        8.06822871       8.67175446      19.45398043       0.03711267       0.01425579       0.01694867       0.51243208      -0.53021330       1.04619449
I        1.76269822       8.50827797      18.58955049      -0.14977660       0.14595321       0.00977709       1.26828711      -1.03793290      -0.55560678
I       24.47348061       5.60881861      25.98584124      -0.12707145      -0.25771848       0.13525377       0.65948104       0.08681658       2.41545386
I       24.55906440      11.91030403      13.35947253       0.10125867       0.15330510       0.05476458       0.21632350      -2.45246380      -2.03843753
I       23.94168837      12.03725476      19.73399251       0.05075183       0.02992712       0.16715430      -1.32289512      -1.56142497       0.66643787
I       24.12660419       5.44591373      20.14169988       0.01073776       0.18948624      -0.06432492       0.66894543       1.54188977      -0.83512849
I       11.29090347       8.63205193      16.22630823       0.08698592       0.16226659      -0.05331293      -1.02205125       0.75197462      -2.22064573
I        6.25312173       8.87508213      15.69502293      -0.21145874      -0.04608356       0.08757288      -0.58507498       0.96563990       1.20764717