768
Lattice="40.227587415121015 -0.7682833808457515 1.3263590934115383 0.394859312395313 23.52400323722727 0.25591382290307674 -0.5366011814355014 -0.10491616676151522 18.726843227480614" Properties=species:S:1:pos:R:3:forces:R:3:momenta:R:3 pbc="T T T"
H        7.32442133       1.23817471       4.94637580       0.91881190      -0.96302740       0.33457755      -0.15275209      -0.02858592      -0.00695970
H       11.99062388      12.61246369       2.50529096       0.34882494      -0.07074286       0.25352092       0.05402919      -0.18005144       0.05674306
H        2.04911467       6.68934450       4.38045814      -0.13167117       0.44880927       0.04913408      -0.07920494      -0.08942279      -0.06788783
H       17.82002149       6.57329675       2.50819290      -0.30534252      -0.22535979       0.20656207       0.10158662      -0.25792025       0.08713065
H        7.25782261       2.59746510       8.20318288       0.57653226      -0.01154488      -0.11201898       0.06972766      -0.00255900       0.08286874
H       12.10317168      10.52453195       1.37421886       0.47030476       0.33027574       0.61929821      -0.08720084      -0.03599264      -0.08909707
H        4.09550411       6.01917860       8.06605547       0.06054965       0.92893774       0.46634733      -0.00684811      -0.20102281       0.09460867
H       15.84178927       7.66034781       1.75624173       0.17901647       0.69854321      -0.37514347       0.21172753      -0.00717729      -0.07368006
H        4.34138721       1.55429907       4.73623469      -0.41619920      -0.03724565       0.17740058       0.12510519       0.17898208      -0.13394672
H       13.78325588      10.24817715       1.86456328      -0.59330843       0.45689889       0.42070562      -0.10827595      -0.07469419       0.11949883
H        4.80442320       7.66549258       8.46750653       0.34755119       0.08771774       0.04244585       0.02314891       0.29094477       0.06210690
H       14.74890428       6.50935331       2.39503465      -0.85881358      -0.75302277       0.19049256       0.16219598      -0.02407777       0.09241776
H        5.71093558       3.46760077       3.75706230       1.66982208      -1.34696691       0.22541744      -0.00456028      -0.12786082      -0.15623178
H       14.80138120      11.81809824       3.37660786      -0.15552888      -0.18116535       0.00014932      -0.07641237      -0.22252753      -0.11647478
H        4.94613320       7.47937367       4.26314089      -0.15800356       0.08532723      -0.10001792      -0.11835572      -0.12723919       0.01123263
H       15.77885995       4.56373420       3.65027136       0.18547525       0.12797808       0.08856487       0.04881749       0.05666841       0.17653761
H        7.53014362       3.16799943       3.88235489       0.26277713       0.20865329      -0.53909837       0.07119049      -0.02378677       0.00640361
H       14.00284411      13.29951285       3.77782871      -0.46318023       0.16294589      -0.16406802      -0.16623484      -0.02136491      -0.00522649
H        4.06627961       6.17943656       3.46203180      -0.09264797      -0.02899137       0.04609800      -0.00850607       0.03911630      -0.02556031
H       15.28731587       7.46198080       6.48351575       0.59780270       1.00418542      -0.51244853      -0.08779158       0.06708014      -0.16268264
C        6.38275191       1.68923065       4.70738173       1.01218574       1.73995365      -1.75070394       0.74826499      -0.64695683      -0.28267154
C       12.90027638      11.96386542       2.61427244       0.34315587       0.75935198       0.76632358       0.34409495      -0.36187494       0.04187560
C        2.89115340       7.38182181       4.59435506       0.07670783      -0.10956265       0.28772363      -0.01339311       0.20406260       0.38471472
C       16.79520694       6.14503051       2.71280025      -0.14189793      -0.73244795       0.52952820       0.07968021       0.16638304       0.70449143
N        5.24922062       1.12717967       5.03532421      -1.40113563      -0.57621296       0.60624866       0.04618944      -0.34531354       0.72820730
N       12.88826761      10.76792868       2.06080075       0.07207632      -1.49996623      -1.79320023      -0.09292569      -0.17780219      -0.30537457
N        4.01655135       6.98464675       8.52217605      -0.38388111      -0.94949700      -0.13092117       0.21897342      -0.02429434       0.08453536
N       15.72476725       6.79562729       2.27093249       0.24777972       0.43003306      -0.39845569       0.06930123       0.51414591      -0.05201426
N        6.53164886       2.80369143       3.98310344      -2.25485224       0.45109397       0.99840311      -1.07770589      -0.27949804       0.41509528
N       13.94920159      12.38619626       3.30289202       0.01229044       0.05074136      -0.19731166       0.94435792       0.00793270      -0.47788564
N        4.03851222       7.02892083       4.04187913       0.10345208      -0.03618863       0.13224027       0.57254919       0.05663101       0.26355138
N       16.69277914       5.00035563       3.39758320       0.61933109       0.98928178      -0.51323688       0.05695765       0.50949288       0.49456428
Pb       0.57726679       2.88326575       2.50516346      -0.08536093       0.09513669      -0.10988146      -2.43993742      -0.32972041       0.95089980
Pb      18.55444513      10.79863300       5.31442977       0.04821079      -0.16258472      -0.11699344       0.51098848      -0.62522360       0.46101214
Pb       8.47598707       8.64461025       2.49378860       0.01437603       0.16661522       0.03227265       1.25764257       1.01864915       0.96254352
Pb      10.75306802       5.09176582       4.67915663      -0.01465186      -0.21100383      -0.10389422      -1.88904910       0.41661895      -2.54267732
I       39.99779887       4.22153931       6.11363090      -0.08882240      -0.05950478      -0.01380348       0.86994279       0.34785971       0.29944801
I       39.92108094       8.44787163       3.69983158       0.00087677      -0.02074344      -0.16001055      -0.88844588      -0.99293950       0.54559311
I        9.78677423      10.66550460       4.73421395      -0.12250483       0.05380454       0.16801787       2.38172627      -0.31765409      -0.45319708
I        9.71983875       3.00509061       2.23045273       0.05210785       0.10932984       0.08010131      -0.91739228       0.70820430      -0.71466501
I       17.74707567       1.07799184       2.83802767      -0.13181098       0.19377365      -0.06291066      -1.53843782       1.84760435      -1.09210238
I        1.65766499      12.52443103       4.81669759      -0.01757899      -0.05659108       0.08089045      -1.10023308      -3.09894193       1.08588795
I       11.57830482       7.12858522       2.48767732       0.10189988       0.27459885      -0.23020007       0.44633722       1.56006573       1.22240578
I        7.54452413       6.52630014       4.66662426       0.20774384       0.02860142       0.16691712      -1.36316171       1.45725038      -0.26060903
I        3.46606999       3.90214994       2.09882707       0.24647049       0.32445678       0.20168570       2.01513124      -0.39018280       0.34601687
I       15.65907444       9.69349228       4.90553692       0.01292562      -0.13269935       0.16912980      -0.27531072       0.31669282      -2.08203918
I        5.54286744       9.93131918       2.54540502       0.21297771      -0.03316952       0.04420620       1.52376775      -1.24339153      -1.37931683
I       13.66560597       3.81375888       4.76502928      -0.11265950       0.07963482       0.21733918       0.17742711      -1.35656431       1.12726220
H        7.15903046       0.90754681       9.95440759      -0.34998545       0.60189612      -0.11116649       0.14813492       0.03654095       0.12418433
H       11.96122376      12.65169083       7.78911446      -0.81858745       0.57833477      -0.29958182       0.28372037      -0.05043608      -0.07028871
H        2.07315020       6.52217703       9.04542702      -0.44840837      -0.36909509       0.23598891       0.16840896      -0.09439421       0.04303648
H       17.29407007       6.86782192       7.60891819       0.28092181      -0.15290861       0.28179659       0.11095442      -0.03521312      -0.10124649
H        5.17966366       0.19008378       5.49886793       0.22431618       0.44410752      -0.16419635       0.03813587      -0.15628257       0.14458153
H       11.98352304      10.74244692       6.43608786      -0.73599241      -0.28277765      -0.45979815      -0.03305980       0.18018729       0.00236529
H        1.79836789       8.65585227       5.82004421       0.59312446      -0.24465456      -0.30173173      -0.02823928      -0.18857074      -0.03643072
H       17.44346808       4.74731817       8.62260175      -0.76385674      -0.11713348      -0.13649829       0.04330941       0.01274663      -0.09986798
H        5.62237233       3.02119150       8.29257933      -0.68361042       0.00424273       0.20863364       0.12732267       0.18461286       0.03835272
H       13.71459614      10.46574848       6.71069654      -0.86326690       0.51786140      -0.04851448       0.03806017       0.00555000       0.13329174
H        3.56164488       8.98333699       5.67849479      -0.50098864      -0.12261891       0.01298360       0.05313097      -0.00139110      -0.31634360
H       15.76527858       4.21801525       8.09877463      -0.03235384       0.16878039       0.28248413      -0.16423857       0.13996661       0.14013401
H        4.31794331       1.85653264      10.25385205      -0.39712447       0.69341251      -0.04748595      -0.00813864      -0.16083455      -0.01514713
H       14.87112963      12.12143365       8.26447136      -0.53901376      -0.04137282      -0.37612760      -0.08691801       0.04902150       0.03635822
H        3.35289622       9.12750706      10.05390787      -0.63645754      -0.52730327      -0.15803370      -0.00094979       0.10391949      -0.06542510
H       14.56766007       5.92186454       6.84884717       0.26668490       0.25086851      -0.13755425      -0.07237609       0.04191776       0.08500706
H        5.10238271       0.52585321      11.09269541       0.32204615       0.82714594      -0.52414979       0.06072979       0.08633496       0.06245001
H       13.90613203      13.47356036       8.68056978      -0.33033378       0.61812393       0.39979221       0.03758635      -0.11389131       0.06635293
H        1.65767237       8.47735555      10.18222643      -0.17567966       0.36655332       0.45025580      -0.03300295       0.06009777      -0.07435814
H       17.56958783       4.71441780       3.81291230       0.13214495      -0.64723631       0.36109187       0.04429989       0.26489225      -0.05073144
C        6.29582945       1.58036193       9.71364651      -0.50237823      -1.49233729       0.83395413      -0.60370878       0.34071873      -0.15739331
C       12.86742003      12.11019919       7.60658227       0.97927167      -0.34862855       0.45186938       0.18242370      -0.41459792      -0.34737282
C        2.88611159       7.24203052       9.17507167       0.50707781       0.56859713      -0.62087539       0.51104468       0.37853064      -0.01601694
C       16.45417613       6.14406780       7.57941084      -0.42340829       1.06088122      -0.86541047       0.87427432      -0.38971425      -0.23513195
N        6.38092646       2.45679201       8.70183066       1.05479017       0.97902367      -0.79797232       0.04017901      -0.05170628      -0.38914763
N       12.83379693      11.01618833       6.88894046       1.51107376      -0.54424223       0.22713396      -0.37065627       0.02401070       0.43466674
N        2.73152110       8.41560335       5.41657079       0.04108847      -0.08768626      -0.11976354      -0.19980489       0.70031084       0.25044316
N       16.52893650       4.97521726       8.16662755       1.26626685      -0.54284214       0.36739339      -0.18818594      -0.24235938      -0.90891090
N        5.19807406       1.39214665      10.47756266       0.32990227      -1.76646318       0.35882578      -0.55394245       0.62025024      -0.02645578
N       13.94221713      12.58215356       8.20273412       0.75996467      -0.57002520      -0.04767535      -0.84461199       0.22419078       0.16202551
N        2.62422834       8.37090258       9.83804973       0.58132239      -0.01940852      -0.11224623      -0.27872105       0.38768498       0.06216871
N       15.40034851       6.54710321       6.89902385      -1.16738854      -1.60329082       0.75131408      -0.16275449       0.65380087      -0.13996891
Pb       0.72305491       2.86025851       7.13811329      -0.13159116       0.09645968      -0.12355909       2.43642871      -0.46843676       3.19378498
Pb      18.77923252      10.82190291       9.87115641      -0.23236500      -0.19264883       0.29167433       0.80275393       3.14908547       1.46948803
Pb       8.59995417       8.78442328       7.10606807      -0.14849087      -0.12066560      -0.18641760       1.34917319      -0.88761793      -0.65850849
Pb      10.57588916       5.04848888       9.41133473      -0.12881374      -0.03607720      -0.09313603       1.36601517       2.19938289      -4.16593576
I       39.77575605       4.14526180      10.64113221      -0.02289130      -0.01553474       0.02969491      -0.20341271       0.22894103      -0.57674424
I       39.74999319       8.37331899       8.27012089      -0.01689462      -0.14101703       0.02946782       1.35912475      -0.31674577       2.91184414
I        9.57486826      10.52142833       9.48538088      -0.04494363       0.17668462      -0.01314016       2.09143427      -1.37184435      -0.06763068
I        9.73216516       3.10066801       6.85687516      -0.24601187      -0.18397759       0.33475206       1.41750828      -0.75033585      -3.28405170
I       17.50728468       1.16594124       7.46406952       0.25842709       0.19452200       0.10438712      -0.27914933       1.34837696       0.26883069
I        1.47268156      12.46930428       9.61126287       0.27964717       0.02254005      -0.06202808       0.39312909      -1.03181432       0.85323054
I       11.65001726       7.13956693       6.94726131      -0.17472623       0.07040527       0.15323217      -2.07391155       0.50884239       1.90968049
I        7.56162676       6.69998325       9.48413449      -0.05924035      -0.20408579      -0.24868525       1.75270533       0.80336594       1.17215010
I        3.70673769       3.90884420       6.97154611      -0.21332611      -0.02783962      -0.16659411       2.38999852      -1.71533052       1.76791673
I       15.82602011       9.66985176       9.81089195      -0.22394109       0.03533724      -0.17609183       1.34646353       0.54972775      -0.11405656
I        5.61266328       9.96031392       7.16795722       0.16707109       0.00810156       0.03292565       1.37989375       1.62656499       0.36093412
I       13.29876178       3.84140165       9.78426876       0.38474414       0.02955070      -0.01864085       1.80585865      -0.33804152       0.86706484
H        7.05612074       1.18571663      14.30979741       0.91881190      -0.96302740       0.33457755      -0.15275209      -0.02858592      -0.00695970
H       11.72232329      12.56000561      11.86871257       0.34882494      -0.07074286       0.25352092       0.05402919      -0.18005144       0.05674306
H        1.78081408       6.63688642      13.74387975      -0.13167117       0.44880927       0.04913408      -0.07920494      -0.08942279      -0.06788783
H       17.55172090       6.52083867      11.87161451      -0.30534252      -0.22535979       0.20656207       0.10158662      -0.25792025       0.08713065
H        6.98952202       2.54500702      17.56660449       0.57653226      -0.01154488      -0.11201898       0.06972766      -0.00255900       0.08286874
H       11.83487109      10.47207387      10.73764047       0.47030476       0.33027574       0.61929821      -0.08720084      -0.03599264      -0.08909707
H        3.82720352       5.96672052      17.42947708       0.06054965       0.92893774       0.46634733      -0.00684811      -0.20102281       0.09460867
H       15.57348868       7.60788973      11.11966334       0.17901647       0.69854321      -0.37514347       0.21172753      -0.00717729      -0.07368006
H        4.07308662       1.50184099      14.09965630      -0.41619920      -0.03724565       0.17740058       0.12510519       0.17898208      -0.13394672
H       13.51495529      10.19571907      11.22798489      -0.59330843       0.45689889       0.42070562      -0.10827595      -0.07469419       0.11949883
H        4.53612261       7.61303450      17.83092814       0.34755119       0.08771774       0.04244585       0.02314891       0.29094477       0.06210690
H       14.48060369       6.45689523      11.75845626      -0.85881358      -0.75302277       0.19049256       0.16219598      -0.02407777       0.09241776
H        5.44263499       3.41514269      13.12048391       1.66982208      -1.34696691       0.22541744      -0.00456028      -0.12786082      -0.15623178
H       14.53308061      11.76564016      12.74002947      -0.15552888      -0.18116535       0.00014932      -0.07641237      -0.22252753      -0.11647478
H        4.67783261       7.42691559      13.62656250      -0.15800356       0.08532723      -0.10001792      -0.11835572      -0.12723919       0.01123263
H       15.51055936       4.51127612      13.01369297       0.18547525       0.12797808       0.08856487       0.04881749       0.05666841       0.17653761
H        7.26184303       3.11554135      13.24577650       0.26277713       0.20865329      -0.53909837       0.07119049      -0.02378677       0.00640361
H       13.73454352      13.24705477      13.14125032      -0.46318023       0.16294589      -0.16406802      -0.16623484      -0.02136491      -0.00522649
H        3.79797902       6.12697848      12.82545341      -0.09264797      -0.02899137       0.04609800      -0.00850607       0.03911630      -0.02556031
H       15.01901528       7.40952272      15.84693736       0.59780270       1.00418542      -0.51244853      -0.08779158       0.06708014      -0.16268264
C        6.11445132       1.63677257      14.07080334       1.01218574       1.73995365      -1.75070394       0.74826499      -0.64695683      -0.28267154
C       12.63197579      11.91140734      11.97769405       0.34315587       0.75935198       0.76632358       0.34409495      -0.36187494       0.04187560
C        2.62285281       7.32936373      13.95777667       0.07670783      -0.10956265       0.28772363      -0.01339311       0.20406260       0.38471472
C       16.52690635       6.09257243      12.07622186      -0.14189793      -0.73244795       0.52952820       0.07968021       0.16638304       0.70449143
N        4.98092003       1.07472159      14.39874582      -1.40113563      -0.57621296       0.60624866       0.04618944      -0.34531354       0.72820730
N       12.61996702      10.71547060      11.42422236       0.07207632      -1.49996623      -1.79320023      -0.09292569      -0.17780219      -0.30537457
N        3.74825076       6.93218867      17.88559766      -0.38388111      -0.94949700      -0.13092117       0.21897342      -0.02429434       0.08453536
N       15.45646666       6.74316921      11.63435410       0.24777972       0.43003306      -0.39845569       0.06930123       0.51414591      -0.05201426
N        6.26334827       2.75123335      13.34652505      -2.25485224       0.45109397       0.99840311      -1.07770589      -0.27949804       0.41509528
N       13.68090100      12.33373818      12.66631363       0.01229044       0.05074136      -0.19731166       0.94435792       0.00793270      -0.47788564
N        3.77021163       6.97646275      13.40530074       0.10345208      -0.03618863       0.13224027       0.57254919       0.05663101       0.26355138
N       16.42447855       4.94789755      12.76100481       0.61933109       0.98928178      -0.51323688       0.05695765       0.50949288       0.49456428
Pb       0.30896620       2.83080767      11.86858507      -0.08536093       0.09513669      -0.10988146      -2.43993742      -0.32972041       0.95089980
Pb      18.28614454      10.74617492      14.67785138       0.04821079      -0.16258472      -0.11699344       0.51098848      -0.62522360       0.46101214
Pb       8.20768648       8.59215217      11.85721021       0.01437603       0.16661522       0.03227265       1.25764257       1.01864915       0.96254352
Pb      10.48476743       5.03930774      14.04257824      -0.01465186      -0.21100383      -0.10389422      -1.88904910       0.41661895      -2.54267732
I       39.72949827       4.16908123      15.47705252      -0.08882240      -0.05950478      -0.01380348       0.86994279       0.34785971       0.29944801
I       39.65278034       8.39541355      13.06325320       0.00087677      -0.02074344      -0.16001055      -0.88844588      -0.99293950       0.54559311
I        9.51847364      10.61304652      14.09763556      -0.12250483       0.05380454       0.16801787       2.38172627      -0.31765409      -0.45319708
I        9.45153816       2.95263253      11.59387434       0.05210785       0.10932984       0.08010131      -0.91739228       0.70820430      -0.71466501
I       17.47877508       1.02553376      12.20144928      -0.13181098       0.19377365      -0.06291066      -1.53843782       1.84760435      -1.09210238
I        1.38936440      12.47197295      14.18011920      -0.01757899      -0.05659108       0.08089045      -1.10023308      -3.09894193       1.08588795
I       11.31000423       7.07612714      11.85109893       0.10189988       0.27459885      -0.23020007       0.44633722       1.56006573       1.22240578
I        7.27622354       6.47384206      14.03004587       0.20774384       0.02860142       0.16691712      -1.36316171       1.45725038      -0.26060903
I        3.19776940       3.84969186      11.46224868       0.24647049       0.32445678       0.20168570       2.01513124      -0.39018280       0.34601687
I       15.39077385       9.64103420      14.26895853       0.01292562      -0.13269935       0.16912980      -0.27531072       0.31669282      -2.08203918
I        5.27456685       9.87886110      11.90882663       0.21297771      -0.03316952       0.04420620       1.52376775      -1.24339153      -1.37931683
I       13.39730538       3.76130080      14.12845089      -0.11265950       0.07963482       0.21733918       0.17742711      -1.35656431       1.12726220
H        7.42733105       0.96000489       0.59098598      -0.34998545       0.60189612      -0.11116649       0.14813492       0.03654095       0.12418433
H       11.69292317      12.59923275      17.15253607      -0.81858745       0.57833477      -0.29958182       0.28372037      -0.05043608      -0.07028871
H        1.80484961       6.46971895      18.40884863      -0.44840837      -0.36909509       0.23598891       0.16840896      -0.09439421       0.04303648
H       17.02576948       6.81536384      16.97233980       0.28092181      -0.15290861       0.28179659       0.11095442      -0.03521312      -0.10124649
H        4.91136307       0.13762570      14.86228954       0.22431618       0.44410752      -0.16419635       0.03813587      -0.15628257       0.14458153
H       11.71522245      10.68998884      15.79950947      -0.73599241      -0.28277765      -0.45979815      -0.03305980       0.18018729       0.00236529
H        1.53006730       8.60339419      15.18346582       0.59312446      -0.24465456      -0.30173173      -0.02823928      -0.18857074      -0.03643072
H       17.17516749       4.69486009      17.98602336      -0.76385674      -0.11713348      -0.13649829       0.04330941       0.01274663      -0.09986798
H        5.35407174       2.96873342      17.65600094      -0.68361042       0.00424273       0.20863364       0.12732267       0.18461286       0.03835272
H       13.44629555      10.41329040      16.07411815      -0.86326690       0.51786140      -0.04851448       0.03806017       0.00555000       0.13329174
H        3.29334429       8.93087891      15.04191640      -0.50098864      -0.12261891       0.01298360       0.05313097      -0.00139110      -0.31634360
H       15.49697799       4.16555717      17.46219624      -0.03235384       0.16878039       0.28248413      -0.16423857       0.13996661       0.14013401
H        4.58624390       1.90899072       0.89043044      -0.39712447       0.69341251      -0.04748595      -0.00813864      -0.16083455      -0.01514713
H       14.60282904      12.06897557      17.62789297      -0.53901376      -0.04137282      -0.37612760      -0.08691801       0.04902150       0.03635822
H        3.62119681       9.17996514       0.69048626      -0.63645754      -0.52730327      -0.15803370      -0.00094979       0.10391949      -0.06542510
H       14.29935948       5.86940646      16.21226878       0.26668490       0.25086851      -0.13755425      -0.07237609       0.04191776       0.08500706
H        5.37068330       0.57831129       1.72927380       0.32204615       0.82714594      -0.52414979       0.06072979       0.08633496       0.06245001
H       13.63783144      13.42110228      18.04399139      -0.33033378       0.61812393       0.39979221       0.03758635      -0.11389131       0.06635293
H        1.92597296       8.52981363       0.81880482      -0.17567966       0.36655332       0.45025580      -0.03300295       0.06009777      -0.07435814
H       17.30128724       4.66195972      13.17633391       0.13214495      -0.64723631       0.36109187       0.04429989       0.26489225      -0.05073144
C        6.56413004       1.63282001       0.35022490      -0.50237823      -1.49233729       0.83395413      -0.60370878       0.34071873      -0.15739331
C       12.59911944      12.05774111      16.97000388       0.97927167      -0.34862855       0.45186938       0.18242370      -0.41459792      -0.34737282
C        2.61781100       7.18957244      18.53849328       0.50707781       0.56859713      -0.62087539       0.51104468       0.37853064      -0.01601694
C       16.18587554       6.09160972      16.94283245      -0.42340829       1.06088122      -0.86541047       0.87427432      -0.38971425      -0.23513195
N        6.11262587       2.40433393      18.06525227       1.05479017       0.97902367      -0.79797232       0.04017901      -0.05170628      -0.38914763
N       12.56549634      10.96373025      16.25236207       1.51107376      -0.54424223       0.22713396      -0.37065627       0.02401070       0.43466674
N        2.46322051       8.36314527      14.77999240       0.04108847      -0.08768626      -0.11976354      -0.19980489       0.70031084       0.25044316
N       16.26063591       4.92275918      17.53004916       1.26626685      -0.54284214       0.36739339      -0.18818594      -0.24235938      -0.90891090
N        5.46637465       1.44460473       1.11414105       0.32990227      -1.76646318       0.35882578      -0.55394245       0.62025024      -0.02645578
N       13.67391654      12.52969548      17.56615573       0.75996467      -0.57002520      -0.04767535      -0.84461199       0.22419078       0.16202551
N        2.89252893       8.42336066       0.47462812       0.58132239      -0.01940852      -0.11224623      -0.27872105       0.38768498       0.06216871
N       15.13204792       6.49464513      16.26244546      -1.16738854      -1.60329082       0.75131408      -0.16275449       0.65380087      -0.13996891
Pb       0.45475432       2.80780043      16.50153490      -0.13159116       0.09645968      -0.12355909       2.43642871      -0.46843676       3.19378498
Pb      18.51093193      10.76944483      19.23457802      -0.23236500      -0.19264883       0.29167433       0.80275393       3.14908547       1.46948803
Pb       8.33165358       8.73196520      16.46948968      -0.14849087      -0.12066560      -0.18641760       1.34917319      -0.88761793      -0.65850849
Pb      10.30758857       4.99603080      18.77475634      -0.12881374      -0.03607720      -0.09313603       1.36601517       2.19938289      -4.16593576
I       39.50745545       4.09280372      20.00455383      -0.02289130      -0.01553474       0.02969491      -0.20341271       0.22894103      -0.57674424
I       39.48169259       8.32086091      17.63354251      -0.01689462      -0.14101703       0.02946782       1.35912475      -0.31674577       2.91184414
I        9.30656767      10.46897025      18.84880249      -0.04494363       0.17668462      -0.01314016       2.09143427      -1.37184435      -0.06763068
I        9.46386457       3.04820993      16.22029677      -0.24601187      -0.18397759       0.33475206       1.41750828      -0.75033585      -3.28405170
I       17.23898409       1.11348316      16.82749113       0.25842709       0.19452200       0.10438712      -0.27914933       1.34837696       0.26883069
I        1.74098215      12.52176236       0.24784126       0.27964717       0.02254005      -0.06202808       0.39312909      -1.03181432       0.85323054
I       11.38171667       7.08710885      16.31068292      -0.17472623       0.07040527       0.15323217      -2.07391155       0.50884239       1.90968049
I        7.29332617       6.64752517      18.84755610      -0.05924035      -0.20408579      -0.24868525       1.75270533       0.80336594       1.17215010
I        3.43843710       3.85638612      16.33496772      -0.21332611      -0.02783962      -0.16659411       2.38999852      -1.71533052       1.76791673
I       15.55771952       9.61739368      19.17431356      -0.22394109       0.03533724      -0.17609183       1.34646353       0.54972775      -0.11405656