768
Lattice="32.0609120611585 -0.5112882221814271 -0.5475189371990378 0.2896562838185469 31.11650681404145 -0.5358671673453327 0.3216333527679892 0.2519783857508381 17.761452272036312" Properties=species:S:1:pos:R:3:forces:R:3:momenta:R:3 energy=-3645.290964085653 stress="0.0 0.0 0.0 0.0 0.0 0.0 0.0 0.0 0.0" pbc="T T T"
H        1.74917542       2.73360688       3.08041258       0.08044650       0.76822740      -0.25487866       0.03388019       0.10717631      -0.01058435
H        1.72790556       3.48595714       5.36611384       0.17187532       0.05588832      -0.00267405      -0.06546131      -0.04708809      -0.04301534
H        2.55921992       1.93274898       6.01417594      -0.08206122       0.35593655      -0.17957850      -0.05925207      -0.10968134      -0.09199822
H        3.21463213      31.18031867       3.61878118      -0.01767027       0.53462529       0.37287660      -0.19972289      -0.03670787       0.00620868
H        2.62868795       0.68111496       2.52498310       0.00364752       0.43768992       1.13151564      -0.21899350      -0.07281072       0.00269238
H        6.39131647       3.41102640      16.27558224       0.09324824      -0.82308174      -0.63473691      -0.03142382      -0.02273761       0.05035243
H        6.55245432       2.67821339       0.74813130      -0.00128104      -0.54385071       0.15174087      -0.14770733       0.13229698      -0.02702328
H        6.31625846       4.29150640       1.28718400      -0.12740381       0.10507081      -0.21605908      -0.15591608       0.09274065       0.01860440
H        5.88921127       6.24584576      17.18932095       0.15497981      -0.68564195      -0.13413034      -0.09778433      -0.05855390       0.03624751
H        5.81662672       5.51358079      15.58870802       0.03346355       0.04912864      -0.12701144       0.04294938       0.12587543      -0.06430870
C        2.17971274       2.07875574       3.91456444      -0.40325001       0.59790567       2.30332850      -0.00484914       0.51591555       0.04384262
C        6.33848330       4.18014743      17.00592817      -0.20616293       1.81392398       1.20156112       0.58145246       0.11229941      -0.22169397
N        2.15808574       2.52692797       5.19571778       0.11553395      -0.98208221      -1.58556057      -0.38208684       0.14194426       0.68445663
N        2.66513524       0.89811529       3.56511297       0.21407816      -1.69191060      -1.75021777      -0.28808800      -0.61770888       0.55959231
N        6.28696044       3.63163787       0.50455531       0.19606756       0.04961632      -0.23926846       0.13927416      -0.27275088      -0.18318516
N        5.99404135       5.39736685      16.59037400      -0.07016055      -0.03151432      -0.03683581       0.01407321      -0.01764403      -0.23635116
Pb       5.61382879      30.49647376      16.77013879      -0.16169182      -0.22129180      -0.00454899       2.06127054       2.20921765      -0.75514743
Pb       1.54140872      30.63066571      17.18395422       0.00241079      -0.35683034      -0.05514736      -1.14166452      -1.35505641      -3.55675611
I        6.76961206       0.20224777       1.95431974       0.20071009      -0.06187483       0.03087217       1.41600248      -0.51280708       1.77562991
I        1.61240199       5.43071305       1.61397756       0.24089420       0.13095937       0.15445569      -1.14726580      -1.14285876       0.34264253
I        6.91955559       0.60307565       6.26407424      -0.28922429       0.11606154      -0.18024613      -1.12335409      -0.55490159      -2.22618319
I        1.85526510       6.06835365       6.19961211       0.03052136       0.00263795      -0.17575536      -0.85776586       0.02018334      -0.00430034
I        5.79662703       4.28778179       4.20173243       0.06854971      -0.02891957      -0.07172767      -2.86545741       2.06768612       1.86000152
I        3.50807371       1.84488455      17.86734017      -0.29639550       0.41825247      -0.00385454      -0.39907107       1.80545625       0.40642493
H        2.83364997      10.96069666      -0.21640587      -0.23932711      -0.01022246       0.46218021       0.13009204       0.27148635      -0.10952715
H        2.21655328       8.81854643       0.51668221       0.10643008      -0.19162917       0.01652179      -0.03498747       0.07415426       0.02045393
H        2.22672862       8.41634133      16.63631595       0.09213542       0.43617346       0.28394888       0.09852937       0.05157348      -0.13459601
H        2.29262295      10.12108979      14.76728504       0.11148202       0.61217408       0.97667853      -0.13285427       0.09099743      -0.05292842
H        2.78678205      11.72375266      15.25805584       0.24275353       0.77746051       0.15625830      -0.04722890       0.05034495      -0.18275231
H        6.11583113      10.91228179       4.61381947       0.30978750       0.03820038      -0.01607059       0.07951771       0.18487423      -0.14059775
H        6.44291272      13.21590502       4.94257669       0.00293835       0.17107904       0.35763609       0.15000947       0.28243324      -0.23899057
H        6.60192926      13.62001728       3.19261089       0.03069744      -0.70882241       0.49975421      -0.18436320      -0.07401035      -0.08940320
H        6.57686705      11.56404703       1.62658633       0.06882248      -0.17627410       0.22964384       0.06870364      -0.11762355      -0.06828425
H       15.21746212      12.75997664       4.99886605      -0.00492282       0.41126692      -0.07428052       0.10107146      -0.01594107       0.00406219
C        2.76866454      10.41983835      16.83765559       0.29567111       0.76289666      -0.62181305      -0.15304456       0.19957536      -0.05881610
C        6.37158799      11.56562922       3.73184096      -0.36301777       1.20496048      -0.79514411      -0.03776152       0.10179045      -0.32936547
N        2.20913769       8.96624203      -0.49691420      -0.34418959      -1.17727510       0.61474763      -0.10996276      -0.37192914       0.53056563
N        2.63516551      10.77236196      15.56775061      -0.23031815      -1.33826830      -1.72942502       0.56557251      -0.73457379      -0.14652691
N        6.47175284      12.90237189       3.96481384      -0.13794271      -1.01701838      -0.91831364       0.45748963      -0.83691590       0.00830807
N        6.45599967      11.00406979       2.49399415      -0.04883768      -0.10089101       0.31734134       0.48891564      -0.01336066      -0.06971656
Pb       3.97587251       6.89148096       3.73848600      -0.36262732      -0.12959716      -0.05333244      -1.53209005      -0.85829517      -0.05921695
Pb      32.01908730       6.52901592       3.20478311       0.21097557      -0.06855219      -0.04748498      -0.18834845       1.55216479       0.82090948
I        5.66771983       8.33946620       5.91895542       0.05211154       0.00744179      -0.15031851       1.49361946       2.23751437      -0.98289730
I        2.63076527      13.68050514       5.69512421      -0.19584988       0.00207985       0.34853046       0.77189587      -1.59066291      -1.50714739
I        5.98234214       7.76232880       1.32413963      -0.07206423      -0.06664738       0.08665868      -0.33586221      -0.94076916       1.09120681
I        2.94499247      13.36511635       1.88210933       0.02632503      -0.17710865      -0.16807352      -0.44033662       0.14944351       0.21684442
I        6.84354436      12.37098103      16.60478497       0.29073081      -0.15833662       0.03622991       0.22056882      -0.55840833      -0.76883006
I        2.04256243       9.53853662       3.26854734      -0.11912167      -0.25322643      -0.06862412       0.89645182       1.77281132      -0.25373792
H       10.34356155       2.84383291       3.15330655       0.08150578      -0.22099112       0.55091191       0.03023148       0.12317172      -0.08676447
H       10.49008393       3.26317728       5.45959999       0.02616841       0.07819685       0.36824351      -0.01823340      -0.02989712      -0.03998614
H       10.82772756       1.54622739       5.88188509       0.03753524       0.49786605      -0.04603820       0.06274700       0.13444913      -0.04868428
H       11.24520475      31.11964852       3.40969615      -0.01824869       0.10690426       0.03506420       0.19137250       0.04230409      -0.07198567
H       10.60981158       0.63416590       2.35914250       0.09108213       0.38250756      -0.81813388       0.06542823       0.08860034       0.00723555
H       14.80614945       5.17440788       0.57878041      -0.19801500      -0.51781835       0.20343363      -0.03928541      -0.03480146      -0.04711435
H       14.58028094       5.84369459      16.19181821       0.06029760       0.26516985      -0.52733634       0.15042451       0.25751350       0.10323524
H       14.64390595       4.16598825      15.61961779      -0.12106958       0.15230654      -0.02018510      -0.06549293      -0.12504377      -0.22138504
H       15.37558630       2.51727379      17.50936775      -0.33590548      -0.63837246      -0.52128613       0.23336332       0.08337352      -0.02641053
H       14.94104574       2.92121701       1.39444784       0.15825115       0.10747995      -1.27649104       0.03769851       0.03909264      -0.00583896
C       10.59509661       2.02678176       3.88675433      -0.04608831      -0.13135853      -1.48817567       0.16933905       0.47984479       0.57765445
C       15.03226699       4.54131353      17.66452026      -0.34422608      -0.25155841      -1.00703648       0.17674721       0.24268047       0.46349040
N       10.67794568       2.29770779       5.17703459      -0.08558818      -0.35439086       0.05497187       0.33349237      -0.29011829       0.17299512
N       10.77889960       0.83049771       3.34941663      -0.11102726      -0.24820935       1.47686680      -0.86416565      -0.18451266       0.75035468
N       14.69510853       4.84908956      16.38858227       0.43506465      -0.36947637       1.11342678       0.66514448       0.30192643      -0.32113278
N       14.86962000       3.05380299       0.34977171       0.27607533       1.30805990       1.75120813      -0.28952861      -0.73942289      -0.13867931
Pb      13.33910974      30.37883141      16.88374896       0.19162688       0.09223971      -0.26592382      -0.48789278       0.91500366      -0.29323340
Pb       9.43139431      30.27383836      16.91812483      -0.33914207       0.03521710      -0.26095488      -0.16090444      -1.70199976      -0.34196343
I       15.21647774      31.00551662       1.37090810       0.01128399      -0.12829134      -0.02099652      -0.92459277      -1.23850306      -2.52334677
I        9.52861330       5.35633546       1.70524668       0.26049203      -0.13709930       0.01330784      -0.16735510       1.97707956       0.47586638
I       14.80180058       0.82735201       6.28022610       0.03077338      -0.08534617       0.24501874      -0.21147841      -0.98688256      -0.87983417
I        9.93110704       5.85959622       6.14799646       0.14295487      -0.06514849       0.07108856      -0.79579263       0.25129311       0.32215194
I       13.86597100       3.97131423       3.78562660      -0.00798892       0.23065643       0.00819306      -0.48835733       0.76092657       0.30332176
I       10.58262539       1.49612850      -0.06011053       0.24396995       0.13908432      -0.20686251      -0.91570329      -1.37920588      -0.54644849
H       10.57626332      10.48228174      -0.05769059      -0.36145979      -0.27086914      -0.31384201      -0.06566011       0.00204465       0.10333161
H       10.97973127      11.37199840      15.49663376       0.12739665       0.22126606      -0.12747725      -0.02533287      -0.12313315      -0.11401106
H       10.84417315       9.77460824      14.88018234       0.01759432      -0.52551273      -0.66768367       0.06730287      -0.00625464       0.01847635
H       10.66442745       7.91977661      16.60125900      -0.00188633       0.40794505       0.47048776       0.02616232       0.03086171      -0.11132516
H       10.25493301       8.20515726       0.50047034      -0.04835534      -0.01330471       1.17526031       0.03733907       0.06182888       0.14206060
H       14.62581659      10.74209945       4.16813241       0.27716486      -0.48580276       0.99732784      -0.10299144      -0.05336501       0.21615550
H       14.21452416      10.21670632       2.15297120      -0.06480399       0.07252025      -0.69108874       0.16961117      -0.30375300      -0.06130242
H       14.29962795      11.89909630       1.53633871       0.18415449       0.31293528      -1.10083311      -0.01152201      -0.32087101      -0.06422016
H       15.11451946      13.59636938       3.39640247      -0.04184494       0.32610385      -0.13556383       0.10949473      -0.24524776       0.16217952
H        6.28599923       9.98183072       2.32801079       0.15806538       0.72284293       0.41610860      -0.08417179       0.12960670       0.06474818
C       10.78676217       9.96665336      16.90600828       0.68280836      -0.57977002       2.15169669      -0.48178886       0.13034173      -0.19664745
C       14.72796031      11.56203549       3.49164034      -0.11192382       1.30330373       0.86995097       0.34160587       0.23963582      -0.60770925
N       10.95193105      10.36396769      15.69010548      -0.25949431       0.82904701      -0.52077804      -0.25193898      -0.88636247      -0.29629775
N       10.38088076       8.44371212      -0.45698438      -0.18297029       0.05827698      -2.05843733      -0.29638319      -0.41471282      -0.55595582
N       14.40931224      11.22507729       2.27872787      -0.21272321      -0.42738586       0.10573090       0.26882197      -0.00050774      -0.08750822
N       15.05813077      12.75969842       3.97324484      -0.08753882      -1.47925950       0.04993867      -0.21473825      -0.02386545      -0.43611139
Pb      11.87374138       6.66186466       3.64150583       0.36704445       0.09644959      -0.00682632      -0.84193047      -0.35874340      -0.34894294
Pb       7.87938289       6.76269691       3.89644321      -0.08735266       0.18832787      -0.02601881      -1.10488273      -0.41955510       1.84842323
I       14.07845708       8.34303798       5.59294634      -0.29573795      -0.31837537      -0.04019747      -0.06544564       0.38258081       2.27353696
I       10.78985657      13.78999754       5.64992139      -0.05477840       0.09118406      -0.05625410       1.90804506       0.00307676      -1.97948289
I       13.97830558       7.82542867       1.31633647      -0.19135805      -0.14202074       0.00965647       0.57396957       0.18299461       2.55312461
I       10.88980140      12.88544520       0.95613941      -0.01277606       0.01975417       0.21808863       1.39961913       1.87939303       0.44278101
I       15.18848682      12.09821677      16.50849097      -0.07720901       0.17877814       0.26675772       1.36547965       0.27454697       0.04817883
I        9.95300680       9.20865890       3.33941438       0.05506737       0.07941602       0.01277790       1.66419682       1.14829737       1.76029549
H        3.13053056       3.04053152      12.41127827      -0.22784200       0.16284595      -0.42469169       0.09962164       0.01327116      -0.00107831
H        3.06705371       3.59124733      14.63613819       0.07326635      -0.74548655      -0.27161628      -0.02705631       0.12812930      -0.10612018
H        2.59592122       1.85989145      15.15060182       0.12497219      -0.32512697       0.01839710       0.09097896       0.01041644      -0.08877910
H        2.54394836      31.13787436      12.60804855       0.13850663      -0.12882490       0.17447339      -0.05168555      -0.07920119      -0.07974609
H        2.52869820       0.75302386      11.56854409       0.09938558      -0.09175707      -0.45715041       0.04186002      -0.03997918       0.00931442
H        6.39754677       3.05564446       7.36440134      -0.19459205       0.40712061       0.14417884       0.12816523      -0.17844342      -0.06865676
H        6.70879576       2.41784513       9.53570610      -0.14068033      -0.20563148       0.50374322       0.12172376       0.12384884       0.00087053
H        6.47182641       4.09580179      10.20233901       0.28469381      -1.26123826      -0.82838804       0.02392182       0.05966721       0.05199207
H        6.35025187       5.89758996       8.48027888      -0.01236096      -0.39644039      -0.42743842       0.24917490       0.12078505       0.12152461
H        6.33373604       5.35356341       6.78772223      -0.36036563       0.09078128      -0.15185197       0.02067152       0.12049054       0.05553618
C        2.82749907       2.16470675      13.08089965       0.43028558       0.42849682       1.54169985      -0.06657098      -0.09803987       0.13406948
C        6.35175051       3.83955752       8.14725078       1.07459828      -0.30175643       0.50466015       0.06336258      -0.13587806       0.10764915
N        2.88645441       2.54317378      14.37985432      -0.26197717       0.61180522      -1.01748495       0.18377184       0.24355417       0.42620156
N        2.53328711       0.88484094      12.57316837      -0.33128151       0.19387749       0.11568993       0.24139202      -0.40574363      -0.06011387
N        6.56106368       3.41930796       9.39118015      -0.63337915       1.73149042      -0.07940691      -0.00001042       0.55322915      -0.90654491
N        6.28088471       5.11211298       7.79086345      -0.07596381       0.22631602       0.51643921      -0.11458576       0.38306979      -0.16169551
Pb       4.98967001      30.14532631       7.66196191       0.01359232       0.05637528       0.12856113       0.11214977      -2.88442976       1.23770068
Pb       0.91159454      30.41976152       8.23860161       0.03516648       0.05529874      -0.20349559      -0.92537371       1.05240353      -1.34077706
I        6.94054884       0.20262864      10.59839020      -0.29677058      -0.12958843      -0.17501111       0.44618336       0.27241835      -0.38251622
I        2.02067610       5.34250332      10.64920047       0.16150354       0.02978557      -0.03140024       3.44826294      -0.28073786       2.07088876
I        7.40960854       0.67511901      15.13365275      -0.01246387       0.14124514       0.09239407      -0.30588249       0.43728150       0.29902099
I        2.59917304       6.14272219      14.97774342      -0.12936747       0.00460839       0.18703286       0.98069836      -1.31843845      -0.24374733
I        6.37453534       4.56330994      13.04909570      -0.10895517       0.13978313      -0.17022963       0.94036040       1.69110361       0.91965481
I        2.93840612       1.71547938       8.66453380       0.02429444      -0.17757351       0.18069923      -1.73227586      -1.05244899       0.60555008
H        2.32296503      10.83390904       8.69877402       0.28771232       0.30952381       0.03817932       0.06335233      -0.08511963       0.41911036
H        2.32893117       8.76580428       9.74260165      -0.21200408      -0.18155734       0.68525109      -0.14868378       0.06668260      -0.06751417
H        1.94291974       7.89167752       8.22643672      -0.01733876      -0.71293016      -0.54398523       0.11628025       0.01690327      -0.02919614
H        1.79555371       9.27248132       6.06255592       0.10156115       0.69304246       0.58453986      -0.12378455      -0.05464463       0.15132991
H        2.04416719      11.04777010       6.30195863      -0.00454744      -0.08132547      -0.06122259       0.04621802       0.08216033       0.00937142
H        6.74601781      11.60860957      13.48042866       0.20578646      -0.33438813      -0.39772970      -0.04216754      -0.07964261      -0.12300478
H        6.93954945      13.96455435      13.68553443      -0.20661461       0.00418954      -0.61471892      -0.16897071       0.02591655      -0.03328136
H        6.86389658      14.24183614      11.88184230      -0.02638019      -0.84721758       0.86261923       0.14718117       0.10073923      -0.15968876
H        6.74889936      12.21551039      10.41165427       0.12425187      -0.53552063       1.02684247      -0.14309167      -0.03343448      -0.06361621
H       15.23431397      12.84890441      14.27767745      -0.04397208      -0.33459252      -0.87818925      -0.01296195       0.12181134       0.08620424
C        2.17992644       9.94588312       8.06572243      -0.73721229      -0.89714019      -0.24784357       0.17514937       0.08611931       0.61051904
C        6.83181418      12.21835830      12.54029384      -0.10648413       1.35432261       1.00281391      -0.31554572      -0.11341725       0.21689722
N        2.10823092       8.76751193       8.71417236       0.46674239       1.43132804      -0.26182250      -0.04404187       0.24521933       0.01439967
N        1.94314130      10.09927995       6.72142866       0.14267811      -0.43351567      -0.08746550       0.82057538       0.38460037      -0.38817424
N        6.86044055      13.55156068      12.71598397       0.41089281       1.30163471       0.51963597       0.33557713      -0.71055747       0.46410243
N        6.81348872      11.69182046      11.34559215      -0.56398631      -2.25177097      -2.21029518      -0.58181268      -0.01181379       0.09381395
Pb       4.24296767       7.02135798      12.38533410      -0.01472518       0.00778162      -0.03146002       1.78173280       0.23329841       0.49814525
Pb      32.26799250       6.40972891      12.24192732       0.07435377      -0.08518780      -0.22536496      -0.10854489      -1.34579226       0.79108253
I        6.00699020       8.78762490      14.44374291       0.10791589      -0.02767605       0.03243001       2.69959451       1.75429578       0.70207441
I        3.37851603      14.28976959      15.03494129      -0.27375566      -0.12645199      -0.06324305       1.42600459      -0.21060139       1.59740231
I        6.42787271       8.09021981      10.15264846      -0.06024158       0.01811426      -0.06678869      -3.00091528       1.42321971       0.03083532
I        2.84649592      13.26142913      10.35136205       0.03865639       0.14410283      -0.31401079       0.41129181       1.33311938      -0.67910602
I        6.68282127      12.31155246       7.65427868       0.04987665       0.03731358       0.06620742       0.09228950       1.38045373      -2.69922138
I        1.97589997       9.49293949      12.20350586       0.19364810       0.04906728       0.04862594       0.84750475      -0.29151130       0.41698279
H       10.77887589       2.78148833      11.93765281      -0.11199552      -0.80183870       0.52313917       0.06400169       0.03846068      -0.03354661
H       10.18716402       3.48761568      14.08084019       0.05650738      -0.14727821       0.11662247       0.02244970      -0.08164152       0.06734635
H       10.37620413       1.91202165      14.86906600      -0.14801577       0.29392379      -0.61500598       0.15155894      -0.21273261      -0.13420792
H       11.34371368      31.10200813      12.62280603      -0.05174437       0.03985773       0.27964947      -0.08428454      -0.03002173       0.08582990
H       11.17737757       0.51690031      11.51330972       0.14226786      -0.19432304      -0.49345570       0.16843473      -0.04253340      -0.05126873
H       14.05322378       5.32090351       9.48694295      -0.06899796       0.85003836       0.38643250       0.09468521       0.12499270      -0.05250865
H       14.04127334       5.93025182       7.07015134      -0.15425689       0.14560012       0.42212414       0.09699442       0.15095915       0.05553815
H       14.27655380       4.26152156       6.70444883       0.08856844      -0.15583888      -0.33546794       0.00675003       0.06820935      -0.13314945
H       14.85641170       2.60152196       8.43005785      -0.16566143       0.24898987       0.12708877       0.05656868       0.26878754       0.07729251
H       14.64180107       3.21122427      10.08175835      -0.01851829      -0.22869371       0.39897026      -0.06914437      -0.13712250      -0.18358842
C       10.72208902       2.01440360      12.77053316       0.06935326       0.59622722      -0.10982091      -0.69661392      -0.55925439      -1.33582916
C       14.24627388       4.62494107       8.69278982       0.49276446      -2.74062838      -0.11757152      -0.65683730       0.17302113       0.34333462
N       10.33988263       2.46642524      13.97932802       0.15173154       0.16976154       0.53940893      -0.23067829       0.99590338       0.18104291
N       11.07046603       0.76140789      12.48868968      -0.15988771       0.20838289      -0.32840197      -0.55221681       0.17297825      -0.45205283
N       14.13034628       4.96641912       7.43056695       0.09261387      -0.08383963      -0.00228033      -0.55829077       0.39903909      -0.36538203
N       14.59397963       3.37289998       9.08758299      -0.29142502       1.91915070      -1.07072313       0.61880697       0.21990276       0.13232056
Pb      13.16721548      30.33098966       7.86358045       0.32633088      -0.20834356      -0.03637948       4.80823360      -2.61908979       1.50875729
Pb       9.10227365      30.36276249       7.70626394      -0.00272125      -0.36740541       0.17381397      -0.01089036       0.38442024      -1.43214166
I       15.31987427      31.30574911      10.23889248      -0.09432797      -0.13450607      -0.09169760      -0.63075728       1.06725102       0.10246781
I       10.24297450       5.66510475      10.48162468      -0.15317009      -0.03760788       0.22539150      -0.00436518      -1.78435506       1.67758042
I       15.27491180       0.76487059      15.20476816      -0.21619213      -0.09759539       0.32490204      -0.64509515       0.31649732      -1.89064588
I       10.35030244       6.01201364      14.91641554      -0.17449116      -0.02163809       0.14638686      -2.44894426       1.44883878       2.29677130
I       13.82876238       4.37773889      12.68263779       0.21242492      -0.10192025      -0.02074174       0.45564506      -0.10602732      -0.74869799
I       10.90930694       1.63170732       8.72820159      -0.10094636       0.18012314       0.07445779      -2.67090442      -0.67262002      -4.16084526
H       10.66189921      10.90426454       8.80725587      -0.04923049       0.90067455       0.75685781      -0.08617293      -0.08342561      -0.15294298
H       10.65754622      11.39251338       6.50912030       0.00338111      -0.34340384       0.28334353       0.23193338       0.04166846       0.06137426
H       10.85582269       9.70442277       6.03759778      -0.14363730      -0.34447136       0.32914183       0.27867703       0.00460910      -0.10161658
H       10.94553544       7.94834500       7.97524666      -0.11743248       0.46563682       0.24727424       0.14905612      -0.04145275      -0.15660477
H       10.88459980       8.67953165       9.57404582      -0.22587371      -0.31347707       0.49008531       0.01116871      -0.03855759       0.15760705
H       14.66640961      10.85693426      13.14215124       0.31874750       0.57152821      -0.66178515       0.01268438      -0.07842507       0.07412496
H       14.91386141      10.70342625      10.81648583      -0.13528142      -0.35766360      -0.42341160      -0.10208843      -0.10965883      -0.02597829
H       15.44099322      12.41220373      10.50904540      -0.07740318      -0.37890526       0.17195837       0.12948712       0.01139866       0.27582260
H       15.58253511      13.79452782      12.73271649       0.01556510      -0.57166869       0.16364166       0.01032626       0.04842992       0.01596163
H        6.75929614      10.62824337      11.27678173       0.07372483       1.06736547      -0.05171121      -0.02967214      -0.13216830      -0.13254833
C       10.71799279      10.09068275       8.11596245       0.13418153      -1.96558113      -1.93078239      -0.24013787       0.17485563      -0.60637699
C       15.07408042      11.76705422      12.49708178      -0.38452974      -0.90327088       1.91616492       0.38414899      -0.27753386       0.05349503
N       10.75429560      10.37780487       6.82311591       0.04217225       1.17441787      -0.00793003       0.62291559      -0.57075409      -0.36902551
N       10.81233571       8.81320335       8.56900848       0.24696935       0.23698915      -0.22092318       0.64930171      -0.33743034      -0.29475465
N       15.14327884      11.62932164      11.17167499       0.11937023       0.53942348      -0.87702715       0.38067826       0.08739046      -0.03954460
N       15.36597556      12.85914254      13.19798081       0.14376349       1.35401719       0.37718115      -0.61783611       0.34336849      -0.14947265
Pb      12.13827954       7.05959822      12.61440337       0.29508418       0.06692509      -0.03405326       2.39847228       2.34299171       2.30841488
Pb       8.24379904       7.30716423      12.64034860       0.00514856      -0.25016002      -0.12109300       0.22243157      -1.67423911       0.15673324
I       14.37795002       8.34104713      14.73684596       0.03416824      -0.15105980      -0.17792122       2.20158583      -0.39776894       1.05747546
I       11.21901925      13.98324735      14.30077322      -0.24889980      -0.09916798       0.26510079       2.79021967      -0.35058079       1.79298384
I       14.14466795       8.06065840      10.15604532      -0.00258130       0.21092110      -0.05345709      -2.53896228      -0.39043442       1.46173902
I       11.00040443      13.22881676       9.98340274      -0.18481332       0.19131400      -0.03774990       2.44097408      -0.61985994       0.52412164