768
Lattice="32.0609120611585 -0.5112882221814271 -0.5475189371990378 0.2896562838185469 31.11650681404145 -0.5358671673453327 0.3216333527679892 0.2519783857508381 17.761452272036312" Properties=species:S:1:pos:R:3:forces:R:3:momenta:R:3 energy=-3644.4720765358893 stress="0.0 0.0 0.0 0.0 0.0 0.0 0.0 0.0 0.0" pbc="T T T"
H        3.13464797       2.60234329       2.82977884      -0.15326029       0.07480873       0.45259186       0.14796339      -0.18871637       0.00084609
H        2.29019847       3.22954344       5.15645507       0.12691560       0.31361383      -0.00154232       0.03615595       0.13365994      -0.10442995
H        2.71641937       1.56472626       5.64664502      -0.04399328       0.62796701       0.09677404       0.16295377      -0.07481047       0.01708331
H        3.97401912      31.05760807       3.55182436       0.01769916      -0.11337875       0.16470071       0.06090809      -0.01678122       0.03184183
H        3.98202610       0.47513777       2.44413624      -0.08976559      -0.08370451      -0.80642089       0.04549339       0.16425373      -0.28047636
H        5.97787597       3.00320970      16.77902770       0.26545565       0.29524256       0.20855975      -0.11917941       0.08142715       0.07909272
H        5.97666109       2.62906568       1.41174068      -0.02063238      -0.12192921       0.03643842      -0.00680172       0.05593886       0.03722474
H        5.87969220       4.45595238       1.52101085       0.06558328      -0.08593255       0.66279626      -0.13241525      -0.07564239       0.11034145
H        5.84071626       6.03509203      17.28852847       0.13252594      -0.43305901       0.05873512       0.05839683      -0.09249919       0.21025650
H        5.83440430       5.20996462      15.78225464      -0.08341374      -0.35910479      -0.59351947       0.04666977      -0.08691796       0.03719249
C        3.16260900       1.90167188       3.69261402       0.24381882       1.03712517       0.27725154      -0.45462067       0.29531010       0.49698610
C        6.03255544       3.93963611      17.39996366      -0.56012613       0.30998733      -0.39937951      -0.07194213       0.02818583      -0.55776320
N        2.75448398       2.29935553       4.91693607      -0.23334085      -1.32746446      -0.28282627       0.02076110      -0.43752188       0.37878983
N        3.68768516       0.70013658       3.40419520      -0.00923382      -0.67043104       0.57158853      -0.43731168      -0.18100019      -0.41384003
N        5.85094604       3.56178859       0.96112253       0.05694669       0.59932309      -0.72275743       1.23907973      -0.49873184      -0.07631857
N        5.85923584       5.11719414      16.78784828       0.21489928      -0.08690008       0.75696116      -0.27495586       0.23895235       0.45420470
Pb       5.39026841      30.08468356      16.63495466       0.04073244       0.10015071      -0.16613326      -1.66164423       0.18376602      -1.65529111
Pb       1.37680012      30.32521055      17.01938275       0.12779759       0.34921749       0.14497004      -0.94284642      -1.50590251      -1.08767174
I        6.64801936       0.13044214       1.69732074       0.05496139      -0.23513304       0.43303634       0.24395710       0.31977786      -0.43149114
I        1.96647444       5.21686559       1.84295225       0.05302283      -0.05444211       0.01138413      -1.50572633      -0.38444856      -1.49520730
I        6.85124405       0.39696194       6.26295601      -0.03333266       0.03265484       0.17888501      -1.92300813      -0.43172023       0.72843193
I        1.70724871       5.71497557       6.27478767       0.00534185       0.02289556       0.00680300       0.23323721       2.95675117       0.22065204
I        5.74247278       4.32714548       4.72844054       0.07844523      -0.21415517      -0.23423577      -0.61745228       0.15783568       1.04508356
I        3.47847981       1.65523384      17.79114383      -0.21260943      -0.07897719      -0.14222606      -0.59294989       1.32880642       1.26304763
H        1.56724450      10.71099964       0.11655179       0.43103710       0.60123907      -0.26893605       0.22844856       0.09312256       0.06696111
H        1.53559731       8.66066497       1.17938905      -0.10742458       0.11517241      -0.35464810       0.00310976       0.06247362       0.16080272
H        1.75316266       7.99271168      17.40327311       0.17721470      -0.06289148      -0.04463799       0.13625013      -0.11391790      -0.07667860
H        1.99942766       9.28286470      15.24677797       0.21184582       0.28031089       0.45583815      -0.10165517       0.13380196       0.16812262
H        2.11654237      11.08255768      15.32234513       0.04420160       0.08308222       0.42741792      -0.01239255      -0.07083474       0.12380185
H        6.30334210      10.66428785       4.32341193      -0.05625844       0.03566547       0.37536509      -0.03550801       0.24230625       0.13510209
H        6.76399398      12.85738817       4.90050320       0.04320907       0.46931486       1.30496481      -0.17252522       0.12282014       0.15453284
H        6.64064357      13.45794041       3.27780601      -0.03360875       0.24825270      -0.10921816      -0.02940742      -0.04510219      -0.17506600
H        6.30682106      11.58777783       1.45960721      -0.03973751       0.20109798       0.20934871       0.08532437       0.04236172       0.03604577
H       14.94364848      12.83521397       5.37880653       0.08108159       0.21952398       0.76649075       0.11236307      -0.05395756       0.01148647
C        1.95777749      10.08163624      17.21812932      -0.49074622      -1.72200908      -0.30407169      -0.40667787      -0.07173130      -0.35661786
C        6.35556864      11.45435772       3.57568689      -0.07350967      -0.17508076      -0.75625016      -0.31068295      -0.01355978      -0.43985235
N        1.50696086       8.64883309       0.12713795       0.15717531       1.00160802      -0.24714812       0.40954188       0.34376904      -0.13628797
N        2.09399893      10.14901398      15.86772331      -0.31721631      -0.48101789       0.27108152       0.19058599       0.07226840      -0.16045875
N        6.55790558      12.68779777       3.94104160       0.22050403      -0.10925284      -0.69225508       0.46141459      -0.10122416       0.39217031
N        6.19635209      11.04981356       2.33831424      -0.32347088      -1.42445276      -0.24414256      -0.14411462       0.09221345      -0.09518767
Pb       3.85499985       6.86036797       4.04687919      -0.03040126      -0.21696010      -0.12115074      -0.84527481       1.07996246       0.54088743
Pb      31.86964500       5.92008869       3.22193364      -0.30868263       0.29575083       0.11070379      -1.01412848      -0.05648124      -0.68141126
I        5.80732257       8.31686837       6.07059460      -0.11808054       0.21927674       0.14180367      -1.08574948      -0.21960503      -0.35448017
I        2.70278848      13.89781814       5.78340297       0.13677640      -0.04381589       0.06364290      -1.13447588      -0.92672812      -0.20260828
I        5.79043037       7.56845922       1.44394386      -0.07678496      -0.01577486       0.22888611       0.11310700       0.72008192       1.11909086
I        2.69392751      13.22990640       1.39631973       0.10838098      -0.22294269       0.26047013       0.33514503      -1.41177629       0.02547294
I        7.07611979      12.36038282      16.69366311      -0.00900165       0.09103060       0.01225144       0.84717578      -1.21428739      -0.47887219
I        1.77645120       9.16249322       3.57503308      -0.18347160       0.20892422       0.09381944      -2.28053437      -0.42124407      -1.54209354
H        9.89505322       2.45138722       2.96862379       0.30501299       0.15692411      -0.05983002       0.13632382       0.05209010       0.01217807
H        9.81256718       3.59042110       5.11324240       0.01810818       1.94551735      -0.31628623       0.02044391       0.12278341      -0.13409524
H       10.17495143       2.21621206       6.08009455       0.11338227       0.17496299      -0.85986503      -0.13665004       0.22081905      -0.07425595
H       10.60347439      30.92157997       3.97336540       0.11692403       0.75686121      -0.27237651       0.18533249      -0.07861636       0.18312037
H       10.23746503       0.26206069       2.78098161       0.13302338      -0.26634196       0.38991714       0.16364397      -0.22675000      -0.06577324
H       14.46019412       4.91216887       0.51316909      -0.07734315      -0.96496579      -0.08309243       0.07119285      -0.03011007       0.15435529
H       14.09761126       5.97525741      16.21117307       0.13817719      -0.63397592      -0.01518454       0.08700127      -0.07310033      -0.12309489
H       14.11569087       4.38464516      15.32183089      -0.10074922       0.40569132       0.49743602      -0.05384272       0.03617137       0.02099791
H       14.80071388       2.25366363      17.10899248      -0.09028743       0.13025617      -0.72355319      -0.09594744       0.06661074       0.08072061
H       14.73640850       2.62122428       0.95581571       0.00136219      -0.02240626       0.10262392      -0.17231509      -0.06684064       0.27767931
C       10.10577261       1.88584122       3.93367814      -0.55092932      -0.13730878      -0.83609521      -0.92528797       0.81238919      -0.39566366
C       14.61525364       4.37897153      17.44031703       0.29491244      -0.39788291       2.31044639       0.22099172      -0.03347242      -0.20316464
N       10.07645032       2.62103827       5.06315602       0.05877048      -2.63201769       1.93320746       0.05392038      -0.45752399      -0.20541457
N       10.25560868       0.55356654       3.77398280      -0.03868988      -0.04555137      -0.05869912       0.13407261      -0.35490938      -0.03245961
N       14.21271467       4.90548297      16.28080666      -0.11648652       0.54533891      -2.99329026       0.00875148       0.97086104      -0.39737092
N       14.52637080       2.82508053      -0.03883196      -0.02196706       1.01825188       1.03976006       0.52965217      -0.12223665      -0.19970177
Pb      13.29606589      30.00489465      16.89399814      -0.13756105       0.22090171       0.01432054       0.91554065      -0.46996676      -3.08274807
Pb       9.42288388      30.56661584      16.80776696      -0.12913636      -0.20244113      -0.31418650      -1.11718026       0.39320948      -1.59794695
I       14.89436586      30.86621045       1.43180180       0.11801479       0.11125427       0.02879768      -0.21302754      -0.96833864      -0.72660167
I        9.63576336       5.34975178       1.93189481      -0.01493188      -0.26145724      -0.18785086       0.26518726       2.13828828       0.63524550
I       14.97491056       0.34482818       6.46555038       0.06677087       0.08081891      -0.09775383       0.98050655      -1.79854429       3.10365791
I       10.03718289       6.02095777       6.14090754      -0.01318111       0.10611558       0.15633220       2.11177787       0.49494356       2.82298604
I       13.60665625       3.93812110       3.63030084       0.02679913       0.12263014      -0.04012328      -0.30358297       0.72663445      -1.32461324
I       10.94025149       1.49160322      -0.05568166       0.04514937      -0.10433414       0.13480290      -0.93656790       1.59641936       2.30795205
H        9.94926936      10.28548819       0.51717121       0.01316821       0.02348251      -0.01996647      -0.00133727      -0.07045400      -0.11723673
H       10.83553541      11.49856626      16.12752247      -0.19243762      -0.41065114       0.13501820      -0.05541623      -0.06025841      -0.01574827
H       10.57568375       9.97986903      15.23439896       0.00759387       0.12261987       0.48014296      -0.14210880       0.16800489      -0.32755832
H       10.17454944       7.85604641      16.65838835      -0.16011445       0.78367283       0.69439734      -0.17119945      -0.09534859       0.10477136
H        9.48713239       7.90610048       0.68702860       0.01251464       0.01866416       0.02458973       0.04679842      -0.04135112      -0.23505130
H       14.54421203      10.65762594       4.63848782      -0.03606360      -0.15001502       0.12737376       0.09972823      -0.07183015      -0.11614375
H       14.23021670      10.31433494       2.30268390      -0.11241245       0.27018387       0.12963282      -0.05595890       0.02176800       0.01890786
H       14.35768445      12.01971308       1.94650787      -0.21659137       0.00516358       0.17557915       0.05145143      -0.03969975      -0.07173394
H       14.77891408      13.54419031       3.75744225      -0.08675239      -0.38752135       0.41877093       0.15845016      -0.12501551      -0.01166260
H        5.94727933      10.02954363       2.22004230       0.26594544       0.82022515      -0.06944761      -0.09230045       0.24870652      -0.06824923
C       10.29364760       9.89317991      17.35917354      -0.39213502      -1.14459071      -0.07452476       0.25946227      -0.20874230       0.04516998
C       14.51759838      11.50060529       3.94295458      -0.08711990       1.38182390      -0.40872360       0.10635887      -0.11289250      -0.10811809
N       10.56719874      10.47288961      16.17863136       0.36220912       0.59513236      -0.59270490      -0.42197451       0.16492204       0.22150731
N        9.67562179       8.31187265      -0.26898330       0.33126664      -0.02335344      -0.80146608      -0.97886945      -0.11557179       0.15194362
N       14.19452866      11.30178141       2.66805213       0.44728076      -0.97163624      -0.55011817       0.20292944      -1.08699594       0.06980501
N       14.74110276      12.72632838       4.39785346       0.02693896      -0.49918259      -1.03076544      -0.03909406       0.33116568      -0.49918063
Pb      11.94032636       6.77160657       3.49605214      -0.06403775      -0.02432730       0.19974741       2.28419793      -2.45608013       0.07404134
Pb       7.75104318       6.83088875       4.07088309       0.20602591       0.02239713      -0.07331781       0.67836735      -2.15040249       0.56856192
I       14.19359086       7.78939758       5.82039798      -0.23087376       0.33364798       0.07085340      -0.00856371      -0.35617456       0.87086413
I       10.88442080      13.43915240       5.80969456       0.10341026      -0.04548657       0.03069133       1.64148614       1.96666466       0.75735842
I       14.04989925       7.65130665       1.23102968       0.00601602       0.24586543       0.10845359      -0.29654014       0.96137430      -0.09933540
I       10.69282280      13.13283636       1.23188885      -0.10934455      -0.06943709       0.12304425      -2.19207267      -2.08465187      -0.83957929
I       15.05274995      12.29791754      16.44304365      -0.05961368       0.09441278       0.16300144      -0.15445272       2.41594988      -1.16977125
I        9.68042266       9.33706388       3.43000207       0.17433232      -0.11137040      -0.14635283      -0.98555329      -1.24444543      -1.05987801
H        3.07860533       3.02366411      12.34138792      -0.18744708       0.20727602      -1.15554059       0.03047224      -0.18271957      -0.07669930
H        2.81749626       3.48375631      14.60124254       0.13220714      -0.48511845      -0.35728168      -0.21432499       0.07845111       0.08104052
H        2.93845695       1.75735512      14.95599265      -0.01487797       0.07953292       0.42055673       0.20086689      -0.05188894       0.06596139
H        3.35778256      31.29555806      12.74838449       0.07858751      -0.68887979       0.31049630      -0.03081940      -0.07893115       0.02880107
H        3.03956734       0.71716760      11.62490114       0.30732379      -0.21806371      -0.93923496       0.09979501       0.07847084      -0.00795552
H        6.10912908       2.84161495       7.87401765      -0.02670917       0.05040351       0.15079415      -0.20672304       0.05807501      -0.06358203
H        6.73583608       2.21472091      10.03369656      -0.37217921       1.58617024      -0.14657179       0.03717969      -0.07268667       0.10799445
H        6.20942739       3.88101347      10.66929018       0.18855309      -0.62751114      -0.11759049       0.05412239       0.14048665      -0.10629263
H        5.74369159       5.71663804       8.70153288      -0.18768744      -0.57922193       0.01095897       0.04853954       0.20312011       0.10443677
H        5.40768437       4.82775764       7.18461946       0.06773943       0.16304459      -0.65841927       0.01515202       0.02652110       0.03658440
C        3.04551308       2.17352666      12.99500666       0.19251493       1.00263597       1.46176664       0.30891140      -0.27201560       0.11693850
C        6.03797195       3.61266724       8.65959344      -0.31098835       0.20101870      -1.70398837       0.20968070       0.25085250      -0.06557136
N        2.97777095       2.51132202      14.26195383      -0.28894793       0.19123728       0.59603895       0.03798861      -0.02268780       0.24177088
N        3.17081239       0.94179705      12.61685138      -0.29730378      -0.12127610      -0.42570633       0.00785826      -0.18080898      -0.52494896
N        6.33250794       3.22576030       9.86601894       0.38529984      -0.40567626       1.00191391       1.38303895       0.42360863      -0.17089495
N        5.63881787       4.80562308       8.18297102       0.34151165      -0.29814026       1.31605723       0.15537373       0.13422874      -0.54337161
Pb       5.21011100      30.09605940       8.07190275      -0.01097548       0.12389344       0.10778347       0.46512200       2.45449114       0.79180477
Pb       1.25313048      30.14504141       8.10763310      -0.20957108       0.50092005       0.11808016      -0.58623599       1.71751385      -0.40757101
I        7.26452811      -0.14066060      10.87532142      -0.10896727       0.03421115      -0.18354775       0.81898799       2.18918109       0.59002084
I        2.24639651       5.38722723      10.73926965      -0.12365450       0.00218543      -0.04578057       1.15567584       0.59684466      -0.40233292
I        7.04972685       0.93264584      15.33324712       0.04422254      -0.37680916      -0.05309592      -0.18188627       1.12175738       2.14852036
I        1.86709894       5.93298699      15.18597043       0.01396695       0.17029207      -0.09595987       0.03687008       2.54768573       0.42297927
I        6.16890418       4.21334491      13.05050036      -0.01440128       0.07532186       0.28664705       1.15900914       0.44503665       0.93188028
I        2.96800131       1.62758097       9.04587055       0.13015141      -0.30354179      -0.29474785      -0.05424353      -0.44365846      -0.09977022
H        2.42717439      10.68732763       9.23056322      -0.32990099       0.23637213      -0.06418161      -0.25949246       0.10465970       0.01524073
H        2.27406302       8.51184949       9.74705451      -0.11516698      -0.26418122      -0.12769180       0.13615745       0.12498218      -0.16407727
H        1.73675356       7.93258464       8.07034722       0.27171717       0.67456362       0.33301280      -0.10682901       0.09873627       0.07118364
H        2.17279039       9.80648633       6.35593619      -0.51403293       0.14750165      -0.17826648      -0.06405894      -0.02009915      -0.06003312
H        2.06071291      11.48620837       6.96803016       0.12914227      -0.32284343      -0.04040531      -0.06977683      -0.06656654       0.02922611
H        6.61740199      10.62712836      13.25607831       0.01789973       0.64724833      -0.83547029       0.07180287      -0.04906092      -0.03399939
H        7.12066507      12.65944901      14.01682409       0.16517604       0.27283103       0.71033452      -0.12872205      -0.23504808       0.19877929
H        7.60492790      13.49649651      12.41396119      -0.28238563      -1.30265705       0.65279719       0.21044173      -0.12835548      -0.05237236
H        7.27504874      11.74686770      10.35366072      -0.08490451      -1.02115110       1.54928999       0.09907709       0.09114688       0.06120613
H       14.85313260      13.30587381      13.68594384      -0.09288048      -0.12938252      -0.26103265      -0.11651281      -0.22497021       0.02135791
C        2.15248038       9.99881669       8.39282275       0.21343613      -1.07324079      -0.11669386      -0.89743890       0.23888198      -0.02098033
C        6.94663707      11.42688301      12.47583238      -0.14612628      -0.86237360       0.33189067      -0.34476160       0.14529220       0.01178917
N        2.05464546       8.71449036       8.73164384      -0.00486783       0.17333975      -0.09596019      -0.89812413      -0.14551552      -0.47395403
N        2.01654976      10.46892279       7.15031399       0.40013725       0.27511488       0.15451255      -1.33004197       0.54486878       0.52627547
N        7.25310024      12.60703644      12.98492800       0.07494330       0.85682710      -1.15927718      -0.00054120       0.71270863      -0.65155856
N        6.99543824      11.08236019      11.18108039       0.28359842       1.63487391      -1.24499012      -0.50774256      -0.21686128       0.48860283
Pb       4.16782322       6.80016849      12.91114213       0.03132979       0.06756371      -0.16730835       2.23237453      -1.23817591      -1.12106333
Pb      32.17677738       6.40294248      12.02518473       0.00799340       0.10961614      -0.14961252      -1.99620472       0.52358717       0.51422565
I        6.03327771       8.24912022      15.01890813       0.08420377       0.18692422       0.04840514      -1.26883747      -0.08759647      -0.40398611
I        2.69699385      13.42720306      14.74950677       0.24482650       0.33628003       0.04196284       0.05469712       1.16718593       1.85684181
I        6.22297700       7.69242011      10.47051562      -0.06340971      -0.04201985       0.20068503       0.48947851       3.61237916      -2.37917728
I        2.95545324      13.32074843      10.24340372      -0.19801427      -0.07052138      -0.05037683      -0.19053841       0.38234341      -0.33995644
I        6.78816785      12.20417647       7.62259753       0.01041484      -0.33793051       0.10721900      -3.42288031       0.46989196      -0.24768550
I        2.30629080       9.38479968      12.38319606      -0.09766067       0.04505990      -0.10932347       0.13415361      -2.07989715       0.63251429
H       10.62594155       2.70099538      12.00930432      -0.34173840       0.46881033      -0.20925861       0.05935008      -0.05650278       0.01202070
H       10.63072405       3.07041925      14.37388555       0.16724987      -0.15725217      -0.03763158       0.04523405       0.14615987      -0.08678304
H       11.21437578       1.39627835      14.70611854      -0.02971085      -0.14931785       0.35647070      -0.03767096       0.00690575      -0.13603146
H       11.63073820      30.95894338      12.22347924      -0.10550857       0.79349407      -0.39038557       0.10444409      -0.16961013       0.01716281
H       11.17032203       0.57718199      11.15059395      -0.23699237       0.31755673       0.62108718      -0.00451817       0.09341127       0.26414880
H       13.95653447       4.95167442       9.28194878      -0.02912208      -0.72425636      -0.21800947       0.08579312      -0.09390391      -0.15402196
H       13.88364759       5.42564721       7.09435465      -0.21557686       1.03241910      -0.38598845      -0.09093891      -0.16223383       0.05590067
H       14.34184463       3.85375070       6.52225081      -0.18676682      -0.30961268      -0.44588051      -0.07380292       0.18612507      -0.06750651
H       14.61463170       2.06272890       8.50432021       0.16099405       0.14161552      -0.84678145       0.11355853       0.16767716      -0.06879859
H       14.50874671       2.75606394       9.99847651       0.04342123       0.22014710       1.53421192       0.04464413      -0.21087129       0.19934680
C       10.82874415       1.88814482      12.70431550       0.95323339      -0.72097525       0.50475102      -0.35399371      -0.56070141      -0.56868025
C       14.15066523       4.10904730       8.56472979       0.33799612       1.20477711       0.32882975       0.41989591      -0.09224123       0.78732363
N       10.97207320       2.13235626      14.02326639      -0.55681887       0.43379289      -0.64358154      -0.18044386      -0.30672358       0.06296531
N       11.09710820       0.70245111      12.18007445       0.09537154      -0.84621542      -0.24140947       0.09617751      -0.23007888       0.28261332
N       14.05708078       4.46682048       7.30377525       0.25175890      -1.03447353       0.57600677      -0.36272336       0.15786846      -0.36378572
N       14.55241691       2.94530982       9.02774820      -0.35063666      -0.50427005      -0.48308826       0.05937076      -0.57975285      -0.13427992
Pb      13.37159250      29.81997353       7.94806046      -0.12125517       0.13441222       0.01061271      -1.32864824       0.30451740      -0.43617932
Pb       9.28167551      30.08071117       7.68461560       0.27786912       0.01900923       0.19606535       0.03162143      -2.90141525       0.54886973
I       15.23753890      30.88156855      10.43894723       0.19593689      -0.07902171      -0.40922510      -0.36346436      -0.25362166      -0.98656103
I        9.73483859       5.35163712      10.65409952       0.22051898      -0.08724918       0.08576048      -1.31095754      -2.07767863       0.79510394
I       15.03289824       0.39662363      15.46371542       0.03234966       0.04958286      -0.28524644       0.85959984       2.11267237      -2.97912250
I       10.34290412       5.69860797      15.13788347       0.03198510      -0.05464186       0.00011721      -1.87224367      -1.04528310       0.70228230
I       13.95782575       3.89054738      12.70605867       0.05461157       0.29208014      -0.11676899       1.17253869      -0.38434433       1.14653579
I       11.27813213       1.47897643       8.51113137      -0.18135734      -0.15251768      -0.00031236       0.96197999       1.21968291       1.43323773
H       10.36828997      10.74420879       8.74871641      -0.23234437      -0.11743522      -0.48007729       0.17405527      -0.02751809      -0.08453342
H       10.68285966      10.73975938       6.34230532      -0.25161001      -0.96681413       0.12257824      -0.09784884       0.01671620       0.05981626
H       10.26054110       8.91295860       6.25872056      -0.09376389       0.38067584      -0.28586691      -0.10775865       0.19382542      -0.06857248
H        9.51168638       7.76844070       8.56043602       0.11618992      -0.50543064      -0.90245610      -0.02931183       0.18195965       0.09653518
H        9.58901521       8.77890016       9.99821429       0.27952208       0.76766479      -1.28607634       0.32732426      -0.00196632      -0.19784311
H       14.51026755      10.91777981      13.41594449      -0.43896634       0.13114749       0.04868492       0.04407388       0.00074491       0.07627844
H       13.70083625      10.11701623      11.20690571      -0.00524503       0.45185922       0.35901848       0.09239983       0.04664645       0.12391735
H       13.75066513      11.72951762      10.55140395      -0.38847307       0.37814248      -0.53424055      -0.10484213       0.13348344      -0.03373077
H       14.33037663      13.63295596      11.92296540      -0.00074157       0.50706418      -0.11155694       0.13951375       0.11150245      -0.01056196
H        6.80366703      10.11480005      10.88983362      -0.11161603      -0.15960259       0.22442167      -0.16302638      -0.09320970      -0.11430516
C       10.12901077       9.80017171       8.15543486       0.48405557      -0.01959253       1.61552107       0.49516066       0.08208129      -0.29595614
C       14.18114917      11.64710143      12.56375063       0.36817255      -0.36010654      -0.08035428      -0.37443252       1.03116676       0.52409038
N       10.34320634       9.81796191       6.82367448       0.21119224       0.46637906      -0.20347550      -0.18989536      -0.50287751       0.33803480
N        9.76884664       8.72158810       8.92776017      -0.46990784       0.08669520       1.41762458       0.34453322      -0.33123270      -0.68559018
N       13.63332695      11.16683193      11.39762804       0.47052353      -0.90072258       0.04527077       0.08178461       0.27960910      -0.13350404
N       14.43253247      12.95773114      12.73376535       0.17655703      -0.06426735       0.87024686       0.51603855       0.38629238       0.66585937
Pb      12.09776186       6.72252487      12.50543426       0.15240231      -0.28792202       0.07828284      -0.55346483      -1.83289828       0.84387693
Pb       8.19664518       6.78930544      13.05785346      -0.19752312      -0.03743933      -0.25538909      -1.92455970      -0.83576214       0.69301554
I       14.28822509       7.93658131      14.63102947      -0.03405270       0.18306273      -0.24717924      -1.52306423       0.88872364       0.42726758
I       10.99085527      13.82242823      14.67669733      -0.04916959       0.03714859       0.11898415       1.35356322       0.38116977      -0.28720523
I       14.04512637       7.77998101      10.16223594      -0.00923074      -0.16352449      -0.10157474      -2.15507123       0.09013096      -2.34849594
I       10.99599845      13.10904718      10.20441429       0.09740152       0.09655483      -0.17757472      -2.44077628       1.34903791       0.45784751