768
Lattice="32.0609120611585 -0.5112882221814271 -0.5475189371990378 0.2896562838185469 31.11650681404145 -0.5358671673453327 0.3216333527679892 0.2519783857508381 17.761452272036312" Properties=species:S:1:pos:R:3:forces:R:3:momenta:R:3 energy=-3633.9240417139818 stress="0.0 0.0 0.0 0.0 0.0 0.0 0.0 0.0 0.0" pbc="T T T"
H        3.00375850       2.68358083       2.90526232      -0.64910463       0.09059930      -0.16413873       0.07782194       0.08756534       0.14627325
H        2.38350741       2.71910255       5.23779426       0.18015205       0.07091601       0.06626148       0.06185300       0.21288983      -0.22459885
H        2.84064100       0.95649479       5.44308014      -0.45817905       0.76264871      -0.67656571      -0.26172173       0.05602309       0.14821369
H        3.57214290      30.78135460       2.71521214      -0.18344953      -0.45382248       0.19476656      -0.13713095       0.04657178       0.00029363
H        3.26850351       0.73622750       1.76184462       0.30059062      -0.60105378      -0.87232757      -0.25266410      -0.01737648      -0.08731319
H        6.80815131       3.05802824      16.53235151       0.11857854      -1.36307285      -0.81730977       0.07511803      -0.12518817      -0.19337913
H        7.06157140       2.62594679       1.18115882      -0.10922451      -0.69304384      -0.68316088      -0.17015631      -0.13523541      -0.00262502
H        6.85666021       4.31971902       1.33429309      -0.00442447       0.31009241      -0.09109065       0.01234491      -0.08825446       0.22730637
H        6.48824886       6.05576876      16.84727553       0.13214666      -0.79172996       0.32655057      -0.13766964      -0.02989715      -0.02696756
H        6.40742697       4.99305538      15.38822034       0.09371487      -0.66038215       2.47946706      -0.30896517      -0.20067259      -0.06504379
C        2.89864258       1.72970674       3.49616461       0.90185269      -1.61446988      -1.32771599      -0.20817435      -0.37470022      -0.03415943
C        6.81549818       3.91580639      17.15070169       0.17578994       0.26255834       0.70180182       0.22582878       0.39880547      -0.31903115
N        2.62739174       1.79413506       4.79132093       0.17503433      -0.49181878       1.96397261       0.26044523      -0.21179079      -0.79260992
N        3.20018046       0.58327799       2.79904328      -0.32593091       2.21380492       1.10120220       0.92404243      -0.48034142      -0.56704851
N        6.83100776       3.52384383       0.67537143      -0.13699076       0.93333974       0.78285131      -0.10324282       0.81898333      -0.16165965
N        6.50075490       5.02972694      16.49016250      -0.33449823       1.96722524      -2.72915685       0.50997799       0.92542601       0.13995773
Pb       5.44063922      30.24174868      16.55549899      -0.11985670      -0.29442068      -0.54839046      -0.51652515      -0.33514901       0.04741202
Pb       1.31171925      30.45445223      16.49024710       0.63081262      -0.44438657      -0.33350421       1.28109671      -0.45837366       1.74497890
I        6.74281436      -0.04766439       1.68849845       0.19712288      -0.15407920      -0.17848466      -0.25930390      -0.29969792       0.04351989
I        2.10003068       5.18742982       1.64943462      -0.10360301      -0.23724459      -0.36514484      -0.92680600       2.32913188      -1.01393976
I        7.32688186       0.33262794       6.00125830       0.08543904      -0.11188377       0.30267604       0.79055147       0.18197432      -1.25606776
I        2.07642632       5.24078325       5.96651020      -0.01790554       0.22792043      -0.06313557      -0.10571518       2.41050722      -1.91499670
I        6.26204123       4.18445077       4.38067444      -0.11491282      -0.18269621      -0.21798218       0.21172150       0.99993206       0.08772134
I        3.31143323       1.69629185      17.27418683       0.05848154       0.36557735      -0.11180373       1.14885423      -0.33428820       2.40924802
H        2.25331919      10.75917967      -0.24223964       0.17438531       0.27088065       0.52498729      -0.06757540      -0.11823784      -0.29991436
H        1.96340800       8.70301917       1.29076659       0.15914373       0.66652808       0.30982689      -0.15511192       0.21075439       0.11093995
H        2.03908995       7.91567748      17.64143542      -0.15754927      -0.62008165      -0.65002929      -0.00919649       0.10048206      -0.16374711
H        1.70266699       8.84344047      15.22360460       0.37175097       0.00422949      -0.20686983      -0.06639857       0.22029015       0.02662783
H        2.15735407      10.72240144      14.93300396       0.12148314      -0.83169807       0.81740920      -0.03216440       0.09623850       0.02111994
H        6.80901467      10.98468324       4.56941710      -0.05180439      -0.42902985       0.14265667       0.04990527       0.04350482      -0.00001586
H        7.44268584      13.01415180       5.19673654      -0.18034876      -0.00704466      -0.33335833      -0.10295963      -0.03980666       0.08281157
H        7.29669611      13.73970684       3.59670698      -0.15064605      -0.25042814      -0.01085174       0.04011772       0.08002900      -0.00735606
H        6.56802223      11.94785117       1.77391239      -0.06701382      -0.35827791      -0.19100096       0.06944322      -0.02838207      -0.01080537
H       14.66376889      13.14681424       5.05150373       0.22532532       0.15778894       1.63649287      -0.02566411       0.26923139      -0.02188347
C        2.34520500       9.93827527      17.10108366      -0.30582956       1.02959398       0.30224512       0.15798722      -0.48294797      -0.11094122
C        6.83937537      11.72866716       3.77992087      -0.15209358      -1.50553412       0.49684658       0.14952875      -0.62815577       0.32112708
N        1.87353506       8.63764255       0.23962687       0.03820871      -1.00504738       0.01328743      -0.91842715       0.16527347       0.25027532
N        2.17714905       9.81530180      15.69356306      -0.31875449       0.54945958      -1.35208733       0.02984245       0.36077953      -0.10158994
N        7.19525028      12.89517014       4.18795975       0.50773366       2.02323243       0.71026776       0.32726964      -0.04158363      -0.95904012
N        6.47708824      11.31813040       2.57526175       0.43073622       1.31923468      -0.10869467       0.11748017       0.70960744       0.07128208
Pb       4.02296192       6.54665008       3.66612632       0.21363211       0.12885310       0.15208430       0.78176814      -0.05048567       0.76085130
Pb      32.14478528       6.19264520       3.09633556      -0.10828310       0.04073963       0.18447959      -2.16052914      -0.07354854       0.91021052
I        5.62573532       8.35453452       5.75279248       0.21879961       0.02116083       0.09443170       0.60186476      -2.91738411      -2.95062364
I        2.96151811      13.65738752       5.41871253       0.10957866       0.24450395       0.71262164      -0.93679124      -3.13051594      -1.43875021
I        6.37128104       7.77467814       1.41726103      -0.26304208      -0.26688190      -0.08013760       3.03227137       4.06030043      -2.69703756
I        2.49356480      13.15543340       1.37496041       0.16028320      -0.28475659       0.01880017      -0.34856454       0.20420848      -0.41631400
I        7.35099340      11.94132215      16.65389375      -0.06433287       0.26316446       0.06349244      -0.94147578       0.19843028       2.94086655
I        2.24262200       9.23310673       3.53801356      -0.12011430       0.00550491       0.03517502       1.40724229      -0.06849950       1.52823379
H       10.41163160       2.66408330       3.19689003       0.50501860      -0.61255674      -0.63355277      -0.10030568       0.05736569       0.00134359
H       10.27414484       2.81116805       5.44547831      -0.30885826       1.36300238      -0.14193527       0.16700343       0.24441591      -0.31194073
H       10.14927782       1.09321305       5.79232943       0.08096775       0.89818566      -1.31729539      -0.07322654      -0.08394197      -0.24862166
H       10.72895385      30.72050668       3.19824953       0.41557655       0.25072563      -0.51815431      -0.10714027       0.00797488       0.04985620
H       10.83425281       0.41483727       2.12360561      -0.22949205       0.10667240      -0.17249311      -0.12985669      -0.04467065      -0.34755355
H       14.28953457       4.84250108       0.58536174      -0.09470459      -0.24553385      -0.71201387      -0.08529121      -0.09323764      -0.02733751
H       14.52234474       5.99427405      16.13111555       0.11516697      -0.74260020      -0.10176293      -0.10235483      -0.26080140      -0.04806146
H       15.08393511       4.47581076      15.25829632      -0.25771899      -0.40985449       0.16521066      -0.14430233      -0.02162361       0.14461973
H       15.37649719       2.45916495      16.80803947      -0.12526101      -0.40015259       0.42650783       0.10457737       0.14818459       0.13964370
H       14.75084484       2.51602391       0.93412633       0.14683502      -0.02251545      -1.72406778       0.15842572      -0.12752658       0.07269316
C       10.46899112       1.66308867       3.74321928      -0.13143262       0.65590013       0.22067258       1.04599409      -0.58982532      -0.25152033
C       14.84355179       4.45166750      17.40186137       0.37187127      -4.08970443       3.54361282      -0.25991705       0.50091844       0.19974300
N       10.26630066       1.87936431       5.05142964       0.27276700      -2.97708506       1.39386896       0.59804262       0.14634228      -0.26712661
N       10.65410728       0.48142855       3.14042294      -0.52525889       0.77924122       1.22744129      -0.23304598      -0.46162426      -0.53465160
N       14.74788285       4.93895871      16.20441832       0.04197045       2.55112497      -1.73648159       0.42891434      -0.11010278      -0.06891390
N       14.85209091       2.84751575      -0.09763405      -0.34775982       3.32885921       0.10316468       0.34508194       0.28230098      -0.06387537
Pb      13.24159718      30.12152081      16.59865901      -0.13697194       0.31437442       0.40975399       0.88413646      -2.75738418       0.74698154
Pb       9.32251072      29.99734865      16.39320446       0.20928819       0.21011034       0.20016046       3.85140840       2.82485872      -5.74772420
I       15.12060716      30.73599950       1.25799058      -0.07169329       0.09627471       0.18304503       1.98908427       1.46266744       1.33837253
I        9.81002943       5.08024693       1.89160129      -0.05544015       0.05831199      -0.05816138      -1.03087242      -1.14669812      -0.41410190
I       15.17882554       0.83519097       6.57656502       0.02279703      -0.20053824       0.07653352      -1.24377818      -0.30957509      -2.09454195
I       10.42672974       5.72536923       6.11863966      -0.29305926      -0.19269884       0.02781352      -2.02854881      -0.14349878      -1.86235856
I       13.93037058       3.97506961       3.42551221      -0.04085659      -0.32023950       0.07707317       0.93369738       1.40281444       0.13595749
I       10.81159508       1.48988724      -0.45270125      -0.26882852      -0.56518926      -0.02161797       2.40555980       1.49989557      -0.35136834
H       10.27789440      10.42277386       0.47367970       0.30764349       0.73651881       0.50256205       0.00162038      -0.11711527      -0.08416591
H       11.14240368      11.34169337      15.97536862       0.33510377       1.59736206      -0.38934807      -0.04640122      -0.06813113       0.00680481
H       11.30829436       9.67971831      15.41995437       0.15884331       0.13039244      -0.12296350       0.34587417       0.01338224      -0.18209088
H       10.65577944       7.92300170      16.89345029       0.27390739      -0.03057018       0.26726654      -0.05271269      -0.13977486       0.14372645
H       10.20445470       8.08859690       0.90739633      -0.16451932       0.02613035      -0.79044500       0.19095614       0.18627363      -0.20787187
H       14.07799968      10.77583248       4.79271523      -0.26510830       0.10711656       0.69583734       0.26498892      -0.22991589      -0.07782808
H       13.50362662       9.82643279       2.79786053       0.26106258       0.69222258      -0.19834987      -0.09007158      -0.10043212      -0.13616070
H       13.88010643      11.32138168       1.83193572       0.06868494       0.62184023      -0.79919795       0.16237515       0.16889861      -0.28725933
H       14.63949421      13.41925735       3.27942098      -0.12136568       0.46772355      -0.00335463      -0.27764538       0.12977706      -0.05599166
H        6.45550994      10.31932945       2.45052489      -0.39831423      -0.91535389      -0.60258060       0.07376837       0.01113980       0.12764426
C       10.83190687       9.96234057      17.40715436      -0.27870501      -3.37427744      -0.17678430      -1.02193671       0.11353778       0.61617130
C       14.08540849      11.47239936       3.94605873       0.81507588       1.70340863       0.41162537      -0.68020191       0.01172657       0.37458709
N       11.26648585      10.35467373      16.19512388      -0.80833574      -1.29129538       0.25809369       0.63581113      -0.20504641      -0.04966983
N       10.37361159       8.36822413      -0.09273358       0.09203434       2.07182590      -0.04479886      -0.89285638       0.65620101       0.11359869
N       13.79674125      10.88072213       2.77500653      -0.41689624      -1.40005582       0.62177273       0.69147987      -0.36715970       0.20681084
N       14.50880689      12.78731855       4.12243402      -0.55345844      -2.43277405      -2.46409912      -0.05454678      -0.03886788       0.20201981
Pb      12.10470606       6.53602997       3.57795108      -0.31157356      -0.07364139       0.19710338       0.22901167      -0.00301900      -0.77054479
Pb       7.95718447       6.84575584       3.92008215       0.43236855      -0.08885939       0.17900611       0.83547167       0.17764230       1.75787318
I       14.32599844       7.91667754       5.66128716      -0.19729919       0.09846990       0.17110677       0.26029435       1.62522944       1.13766154
I       10.95104474      13.76770183       5.79431031       0.15550127       0.04494547      -0.27077998      -0.34431976       2.33160634       1.85436600
I       13.74040265       7.62506550       1.17077200       0.19717904       0.14422564      -0.20115286       0.03981686       1.32752376       1.34323019
I       10.45537402      13.07795117       1.34796238       0.28674071      -0.01475002       0.07639456       1.41878814       0.60922849       3.85063061
I       15.21232024      11.92894303      17.28263165       0.04963772       0.19054310      -0.51758151       3.42518496       0.94093472      -2.03761048
I       10.11138788       9.17039803       3.26329427       0.02398702       0.25953533       0.27235140       1.88023458       0.62393809      -2.24236312
H        2.43846255       2.80839310      11.74384410       0.25277646      -0.47466512       0.68678506      -0.28701698      -0.03063252       0.13644627
H        2.31769210       3.77737595      13.87974867      -0.08987646       0.30386822      -0.14998864       0.05498119      -0.16225377      -0.00094672
H        2.51360165       2.30117787      14.82620169       0.18351563       0.27617311      -0.88164417      -0.03239171      -0.11262365       0.22065397
H        3.48504501      31.27347464      12.59965188      -0.23262585      -0.12798820      -0.03852506      -0.01926934      -0.06243905       0.00591726
H        2.86287378       0.57835880      11.39959854       0.25233986       0.00359960      -0.06376549       0.12416139      -0.03430792      -0.15617728
H        6.83249602       2.94550091       7.36645820       0.52918792      -0.70443454      -0.57998344      -0.18396062       0.09697434      -0.16208565
H        6.70513160       2.22042426       9.48956849       0.15281403       0.27776221       0.55273329      -0.12737421       0.03548874       0.05386959
H        6.31993765       3.82460448      10.20725371       0.22245958       0.09836162       0.47537188      -0.10006741      -0.02405483      -0.24245858
H        5.98956075       5.59702192       8.40818870       0.38317364       0.64759322       0.16778176       0.16594893      -0.04784820      -0.02639607
H        6.51687001       5.02917778       6.68462926      -0.11992619      -0.03697565       0.85115762       0.17569146       0.09523432       0.18249352
C        2.66399031       2.15305032      12.67652556      -0.60654590      -0.14871967      -2.80072942       0.66485369      -0.30804801      -0.24038040
C        6.69252386       3.67585086       8.14285664      -0.50181278      -0.73381185      -0.80282664      -0.06631812       0.89451649      -0.18263964
N        2.47404852       2.75044332      13.83047391       0.12319990      -0.53744135       2.34212964      -0.63297405      -0.44404857      -0.12870348
N        2.92644801       0.87220012      12.39199189       0.13771636       0.51120629       0.81174550      -0.93652129      -0.83309608      -0.31842281
N        6.67998161       3.25726655       9.37400713      -0.11399821      -1.01751697       0.80327766      -0.15185577       0.08304262      -0.10963778
N        6.43756182       4.85719845       7.73135952      -0.55009235       1.51571786      -1.58060421       0.10283418      -0.22907160      -0.09342988
Pb       5.44743148      29.96583570       7.53096044      -0.33391630       0.03997180       0.35533236       0.75686379      -1.04355668      -0.86829165
Pb       1.33129899      30.17934314       8.09502538       0.07346697      -0.13555369       0.08604678       1.99171146      -3.69117317      -2.89731188
I        6.91679558      -0.05300053      10.53502402       0.24604464       0.02354518      -0.28867780       0.84012727       0.79890328      -2.25880689
I        1.64457182       5.08043571      10.78102059       0.24951723       0.12110639      -0.23511482      -1.59359666       1.50585022       2.24779475
I        7.27955076       0.48441825      14.80824487      -0.04367434       0.07142818       0.18855404       0.82739337      -1.55684588      -0.45447542
I        1.82810465       6.19821699      15.04476968       0.39512774       0.05424139       0.05493378       1.91037654       1.38536057      -0.09729609
I        5.93205016       4.24582057      12.71030953       0.11174266      -0.06894730       0.25498745      -0.31719015       1.53557418      -2.28696391
I        3.06395371       1.41518771       8.39955312       0.04479680       0.13162912       0.30422152      -1.49882940      -3.22091733      -2.01731495
H        2.39695541      10.34536578       9.03914831      -0.13221417      -0.47887951       0.02048154      -0.15478630       0.11270323      -0.15876349
H        2.24276170       8.09479794       9.40098844      -0.04801073      -0.64415171       0.23175315       0.08572696       0.04805296       0.41591645
H        2.12915862       7.55347625       7.68626937       0.37717313       0.44631413       0.26486275      -0.20345189       0.03342917      -0.07841920
H        2.58008323       9.73229816       6.02845124      -0.25522884      -0.82419089      -0.24827036       0.18151803      -0.16729977       0.10096043
H        2.42617599      11.23201109       6.85459606       0.22506833       0.87748883       0.11892629      -0.26857502      -0.01278840      -0.08989958
H        6.78155368      10.80575281      13.61529745       0.35476008       0.29008234      -0.55181243       0.02055463      -0.02738193      -0.03294248
H        7.39065546      13.06337169      13.99346179      -0.13047304      -0.13306415      -0.14161625      -0.30101431      -0.13231191       0.09501491
H        6.93235851      13.62483553      12.35582689       0.19682170      -1.33547826       0.47360206       0.03533998       0.21742101       0.07058850
H        6.35919806      11.79555746      10.73043776       0.00302213      -0.11588552       0.18589739       0.15318159      -0.17056500       0.02249607
H       15.25986422      12.99988553      14.22807870       0.06231595       0.64013399       1.21656395      -0.22313282      -0.21379358      -0.02482089
C        2.37561220       9.63129918       8.18270241       0.33714046      -0.23844078      -1.98547335      -0.51032499      -0.50955917      -0.14854681
C        6.79867194      11.53763416      12.77159582      -0.63764171      -0.10452649      -1.55966770       0.31321220       0.27616244      -0.74760698
N        2.37557852       8.28692090       8.40990577      -0.33156287       1.44785457      -0.21228639      -0.23585257      -0.46147830      -0.03854935
N        2.44717056      10.21654249       6.95398809      -0.13219170      -0.47919335       1.94129482      -0.50712415       0.13538419      -0.28771780
N        7.11455761      12.79476212      13.02172970       0.04630115       1.65227155       0.29215700       0.19514636       0.25489876      -0.41823296
N        6.36709974      11.15702856      11.53710050       0.18678821      -0.91630736       0.75392861       0.69309252      -0.58576088      -1.74422562
Pb       4.11878025       6.89094866      12.44249899      -0.45991937       0.03167567       0.19394875       2.89018225       1.39946850       1.25635419
Pb      32.09627076       6.34090784      12.15845574      -0.43859815       0.25905546      -0.13600626      -1.63024811      -1.62016833      -2.09978010
I        5.99440727       8.22987018      14.46027625       0.16563565      -0.14378728      -0.06568919       2.11363197       0.47763952       1.33829857
I        3.13057387      13.38082460      14.55678881      -0.01396444      -0.17736023       0.04697153      -3.83516729       1.02775821       1.57235013
I        5.99214033       7.56181334      10.03654127       0.06272917       0.25894034       0.07093570      -0.20514269      -1.12071484      -1.35699094
I        3.32982959      13.17463223      10.51853900      -0.26683748       0.17604993      -0.88339602      -0.43244959       0.12492254      -0.21335967
I        6.98855528      12.11603682       7.90011108       0.07758245       0.00089408      -0.02078630      -1.35591879       0.62537629      -0.76500419
I        2.01525464       9.45592285      12.09861759      -0.03818074      -0.34945676      -0.13211693       1.63404430      -0.14040092      -0.29850908
H        9.84369277       2.53328086      11.80680927       0.44345980       1.42061358      -1.77911641       0.36055709       0.00605338      -0.00902098
H       10.36966379       3.83953916      13.91789231       0.20745570      -1.04502643      -0.54246764       0.06286812       0.04964092      -0.24452666
H       10.85878016       2.37422231      14.88042586       0.23239008       0.02176491      -0.10045813       0.15420955      -0.23577380       0.04402646
H       10.85766696      31.18072386      12.99545655       0.53320229      -0.57520285       0.31932681      -0.02034272       0.04104148       0.16939782
H       10.30760188       0.23554678      11.70260891      -0.01976723      -0.44244058       0.15550243      -0.20620787      -0.25838517       0.27404990
H       14.11888453       5.36474607       9.11573249       0.03668069      -0.81044097      -1.56403981      -0.04443926      -0.06591207      -0.39645754
H       14.84697883       5.36003908       6.73931859       0.09047833       0.06634756      -1.16045904       0.07328707       0.14275467      -0.22897195
H       15.43601094       3.58523564       6.54412715      -0.30679671      -0.55832801      -1.11002929      -0.22082182      -0.12804413       0.00962201
H       14.62700887       2.31593818       8.95102156       0.14658767      -0.12869790       0.46181826       0.02060396       0.19899693       0.09675857
H       13.86900041       3.38329982      10.47195042       0.35471036      -0.26134663       0.65496832       0.01595533      -0.40607008      -0.16703549
C       10.32043856       2.02008991      12.71503876      -0.24555481      -0.36218835       3.01723470       0.02285215       0.68925244       0.49374865
C       14.50450167       4.38018212       8.51990707      -0.54131602       0.78183746       1.99953810      -0.46965127      -0.85909472       0.21868506
N       10.62744433       2.78185935      13.89485663      -0.60226097       0.73933273       0.48491161       0.33820255      -0.92177367       0.32776395
N       10.50676216       0.67572669      12.67951311      -0.39414377      -0.14268102      -1.58060850      -0.59643570      -0.20494914       0.51168054
N       14.97368393       4.41089933       7.10589652       0.19236376       1.43448698       1.93510208       0.99453158       0.71710444       0.18954334
N       14.40873774       3.26211977       9.39625740      -0.06067447      -0.45715392      -1.37219742       0.34994942      -0.46333861       0.15776129
Pb      13.38937243      29.81271288       7.77624826       0.17659581       0.43412437       0.14158551      -1.53766902      -2.23977229      -0.51126008
Pb       9.44276690      29.91076317       7.65370006      -0.12412741      -0.20870264       0.51799984      -6.38733304      -2.55559037      -3.98195607
I       15.59675181      30.88064985      10.00810326      -0.11101108       0.00365908       0.26838148       1.02210722      -0.89024044      -0.34249880
I       10.21774005       5.11823680      10.55012011      -0.14156202       0.08870419      -0.25056982      -2.74638962       3.09507134       0.90741636
I       14.70929900       0.62025760      15.13994883       0.39738419      -0.11738496      -0.21366606       0.57661092       0.31888544      -0.20231344
I       10.25758669       6.00696900      14.82925303      -0.21817133       0.12523049       0.18721609       0.50417296      -0.60732462       0.69980997
I       14.00968670       4.18433217      12.44936290       0.29559039       0.13875120       0.21370100       0.35974135       0.64015833      -1.38010419
I       10.75440770       1.24308014       8.97417419       0.20204593      -0.05408301      -0.21061465      -2.03782875      -1.09049038      -0.90649453
H       10.77790117      10.61094749       8.96669067      -0.29476131      -0.27900467      -0.26852310      -0.06106305       0.06243885      -0.23917987
H       10.39218749      11.41969619       6.68096778       0.44985119       0.35026474       0.06511632      -0.20635517       0.05527535       0.05455162
H       10.56605550       9.75834116       6.06189346       0.29450203       0.11116955       0.12327107       0.10169737      -0.02649339       0.08050684
H       10.98816295       7.72197874       7.84004359      -0.00597536      -0.37587858      -0.76032986       0.39455454       0.01715198      -0.10359952
H       10.89901739       8.24546456       9.48311831       0.18949919       0.34818309      -0.34824609       0.14553676      -0.04316391       0.00874512
H       15.04595038      10.92644485      13.58713554      -0.13807150      -0.86280553       0.14441955       0.05127581       0.06977191      -0.08388216
H       14.65165958      10.40467738      11.25410228       0.15873174      -0.15155228       0.35174974      -0.02498714      -0.15493797       0.00089332
H       14.71450539      12.04293941      10.80150884       0.20066975       0.24175545       0.47209434       0.20781233       0.25984149       0.05636712
H       15.05958951      13.76051320      12.64132601       0.02304706      -0.16964566       0.26953382      -0.15178377      -0.20499927       0.01872121
H        6.25513266      10.14781714      11.30870604       0.00413313       0.80105299       0.31285112      -0.06157611       0.01505278      -0.02465514
C       10.77772779       9.86464055       8.13409763       0.57239178      -1.21243938       0.36976625       0.00370360       0.61693759       0.28586836
C       14.98938978      11.67786650      12.81472628       0.50601032       1.65637401       0.90682965      -0.05294194      -0.02661163      -0.10103167
N       10.77084748      10.35546096       6.88901228      -1.04603538      -0.87057654       0.25216441      -0.46525188       0.46686421       0.46178328
N       10.98784928       8.50380068       8.48416174      -0.15127304       1.85114732       0.58567507      -0.09848149       1.00589070      -0.85926153
N       14.89472627      11.35694112      11.57510528      -0.78379466      -0.60221036      -2.25792377      -0.38964939       0.14489274      -0.61284902
N       15.07043914      12.93096728      13.26273299      -0.07576069      -0.68194828      -0.96287527       0.02089670      -0.82661975       0.52605378
Pb      12.22445729       6.82561013      12.46115388      -0.06853854       0.14572583      -0.00254173      -1.53913804      -3.20584087       1.42875106
Pb       8.17387826       6.60213054      12.30070140       0.09074290       0.52407663       0.32791343      -1.25457415      -0.40611184      -3.81274795
I       14.00795768       8.21952158      14.63157426       0.27122570       0.03554139      -0.01868407       0.94438593       1.11894949       1.59225375
I       10.99700744      13.99408501      14.78498108       0.13134467      -0.20117162      -0.09074072      -1.24659012       1.57353043      -0.06678951
I       14.10014560       8.21756748      10.11964980      -0.01145435      -0.22111722      -0.14245937      -1.73903859       2.83079415      -0.40365826
I       10.96457179      13.10877031      10.32569716       0.12797019       0.09722758      -0.23499953      -2.48270675       1.92726619      -0.29079672