768
Lattice="32.0609120611585 -0.5112882221814271 -0.5475189371990378 0.2896562838185469 31.11650681404145 -0.5358671673453327 0.3216333527679892 0.2519783857508381 17.761452272036312" Properties=species:S:1:pos:R:3:forces:R:3:momenta:R:3 energy=-3598.8142983587863 stress="0.0 0.0 0.0 0.0 0.0 0.0 0.0 0.0 0.0" pbc="T T T"
H        1.63762252       2.45023113       3.02708753      -0.76067341       2.44192359      -1.91904167      -0.04522706       0.21478982      -0.08846692
H        1.41814770       2.98709165       5.12277534      -0.20279732       1.41176926       1.17546966      -0.13429835      -0.76793473       0.20416593
H        2.67527717       1.56609383       5.85738783      -0.62880262      -0.54776588       0.22329777       0.33392061      -0.33908861      -0.13785743
H        3.61522942      31.01072256       3.55766709      -0.29496185       0.87315929      -0.59451932      -0.18192393       0.15645834      -0.39476624
H        2.64265180       0.40332449       2.35073466       0.35086521       0.37310516       0.89920484       0.32289973       0.01406153       0.55199152
H        5.95214928       3.31860023      15.70179084       0.55734393      -1.22392515      -0.72362788       0.08371149      -0.18874001      -0.01988768
H        5.56364609       1.96123260      -0.08632117       0.30904855      -1.66050326       1.36589651       0.07675028      -0.07567511      -0.15192808
H        6.09645500       3.45049988       1.14883164      -0.06093504      -1.01333391      -2.33083352       0.37114092       0.52749567       0.05697188
H        6.81577111       6.11715394      16.98129209       0.33171710       0.43359369       1.73429928       0.02320210       0.03689995      -0.03763545
H        6.85514742       5.63446149      15.36209810      -0.16516150      -0.21785714       0.80642918       0.24498036      -0.09057661       0.07117527
C        2.03461732       1.81742266       3.77116510       0.89637493      -6.24022213       0.06488275      -1.02299992      -0.59678008      -0.44774493
C        6.30293218       3.93929137      16.59065488      -0.47505999       2.22558969       3.38479486       0.78111764      -0.17581221      -1.14043679
N        1.76492396       2.04518520       5.01482061       0.89746731       1.46723774       0.53922953      -1.30096321       0.92356821       0.66431660
N        2.81436248       0.64430593       3.39072600      -0.15293068       0.31110483       0.17199846      -0.32154983       0.91242208      -0.05494769
N        5.83440772       3.04206427       0.06243416      -0.05287395       1.03481017      -0.04599926       0.15657905       0.44516812       0.40152368
N        6.71016858       5.31625971      16.39649558      -0.37840523       0.44367034      -3.97910946       0.14263390       0.35334778      -0.31917319
Pb       5.09671452      30.32547720      16.55780574       0.16541486      -0.37967723       0.63635285      -1.83489820       2.49564678      -4.53580716
Pb       1.28593559      29.82007797      17.26339187      -0.56154397      -0.01060246       0.10446172       0.90770027       1.89685840      -4.14050421
I        6.14479099      -0.23761428       1.95347176       0.26354592      -0.03136750      -0.40038177      -0.78775193       6.35407948       3.90244333
I        1.58019901       5.25063528       1.55426649       0.11214519      -0.26594608      -0.17236849       2.09865221      -3.39746307       2.27471637
I        6.98953941       0.44374675       6.51341286       0.22623704      -0.03579584       0.10478116      -6.15419304       2.21453615      -3.54994394
I        1.83954221       5.86414513       5.92991468       0.22198621      -0.02951087       0.00360788       1.83472128      -2.51578025      -4.82066394
I        5.68486940       3.86221556       3.62067802      -0.11597709      -0.54365471       0.32502764      -3.36790291      -4.44347216      -1.03746143
I        2.37771500       1.58141105      18.16231057       0.14598619      -0.26186077      -0.55228129      -1.41004074      -0.60844661      -2.84678190
H        1.75554460      10.28921616       0.52051650       0.19987737       0.54104269       1.02969674       0.09574279      -0.33497344      -0.28627989
H        3.39534728       7.47393065       0.33346003      -0.18112148       0.25219660      -0.61227200       0.00400147       0.51107785       0.11627465
H        4.03233763       7.72581424      16.22080888       0.01018318       0.77861659       0.03559866      -0.06315544       0.06404816       0.13686837
H        2.96117668      10.51413117      15.08831321      -0.29664162      -1.38405637      -0.59609208      -0.28986721      -0.18488190       0.02811977
H        1.82535200      12.00451314      16.11190562       0.27314858       1.38668626       0.64257666       0.05915112      -0.38590683      -0.03908272
H        6.88909581      10.16823836       4.83625705       0.10416936       0.52509766      -0.13325678      -0.16483139      -0.09607695       0.03867378
H        7.62720534      12.50437672       5.55507657      -0.13151532      -0.39163201      -0.66012496      -0.19259811       0.00713866       0.23305109
H        7.99424168      12.81774373       3.77631257       0.08572642       1.27601945       0.10706813      -0.06506617       0.03412110       0.08558226
H        7.48665194      11.38067498       2.03032982       0.11628303       0.17728535       0.71665480      -0.05751973      -0.17780538       0.25714435
H       13.67628154      13.01359715       5.30843735      -0.09113490       0.89415835       1.52146182       0.26417363       0.08435226      -0.22299278
C        2.66691802       9.97438219      17.27253094       0.10527891      -0.93729150      -3.02616301      -1.86816729      -0.23190612       2.08051298
C        7.25180603      11.00572385       4.13017683       0.35506903      -1.25160257       0.07765184      -0.74094915      -0.60827693      -0.14591080
N        3.28664614       8.12605887      -0.61636785      -0.08025419      -0.40318397       1.31747822      -0.11243243      -0.97829288       1.47426436
N        2.41387723      10.90004807      16.12354600       0.01221153      -0.19738124       1.22171174       1.04895851       0.92864193       0.95346562
N        7.75545818      12.17689433       4.54917611      -0.36039916      -0.06714720       0.26220916      -0.82097316       0.05651134       0.08162040
N        7.22313569      10.74002398       2.83606560      -0.11047956      -0.73827665      -1.64167233      -1.37378847       0.28967141       0.98262720
Pb       3.91492105       6.38382687       3.38313504       0.22282817       0.89078480       0.31792241      -0.45693849       3.89448603      -1.70971366
Pb      32.09644565       6.37087243       3.09843679      -0.76217581       0.75589077      -0.21926893       1.53745216      -3.80644181       2.16970776
I        6.17371199       7.73725394       5.57027678      -0.18764295      -0.31114484      -0.27740534       3.71770700       4.65271932      -0.30180269
I        2.62795285      13.21474189       5.74061158      -0.02310844      -0.02225070       0.02610007       1.20551031       2.47271602      -0.77304166
I        6.32885594       7.45585812       1.19738792      -0.10960235       0.00865541       0.23479209       0.51347536       0.19909050      -1.51011024
I        2.83756731      13.00427289       1.24760164      -0.10257783      -0.01511960       0.30971850      -2.62140485      -0.21625273       0.98672391
I        6.92823943      11.84316211      17.30903725       0.11861546      -0.00297427      -0.23062727       1.37567360       0.99685814      -0.05530165
I        2.32619645       9.42105438       2.90137376      -0.14571832      -0.61365930       0.50126508      -1.84803480      -1.76194247       2.18176881
H       10.49292869       2.70185003       3.60295023      -0.57492608       1.15079651      -0.25102383       0.24174619       0.01855597       0.33539947
H       11.44179063       2.52135287       6.19053633      -0.29069407       1.19778201      -0.20247106       0.25701101      -0.11373108       0.20548156
H       12.43845552       0.87373994       6.07982537      -0.16187575      -1.65574842       0.81269114      -0.07577126       0.06378267       0.23065749
H       12.34897051      30.84154410       2.94219363      -0.40923550      -0.27294887       0.26101098       0.02960983       0.14247818       0.19514796
H       11.00758096       1.02945878       2.10978132      -0.06052282      -0.87800567      -0.82002173       0.16817470       0.11275479       0.17360121
H       13.65274861       5.80382820      -0.62445389      -0.45089963       0.90741016       1.08429229       0.02143339       0.25567649      -0.35135173
H       14.99472009       4.68701388      14.42219271      -0.15370405      -0.90608650       0.57115975      -0.25518602       0.00414578      -0.13876798
H       15.21869858       2.51847999      15.61478741      -0.21630534       0.39559451      -0.11146084      -0.04021324       0.02757955       0.31205627
H       14.73010346       2.79071545      18.47204914      -0.29564858      -1.79275486       0.13111465       0.51495944       0.14301098      -0.04836119
H       13.18175239       4.05130033       1.98060360       0.61901634       0.06541697       0.31680475      -0.06111964       0.01115042      -0.53172828
C       11.07860777       1.75853926       4.10272655       0.68062570      -0.33109166       1.36691364       0.58069354       0.97335660      -0.57872204
C       14.28451421       4.68652740      17.17881009       0.45255002      -2.56590920      -0.99370662       1.20006949      -1.44587457       0.12221815
N       11.63975113       1.65873819       5.53384356       0.11269324       1.02959231      -0.65186708       1.74144316       1.02885524       0.05332689
N       11.31161667       0.72528352       3.19075275       0.53229529      -0.54226389      -0.58692211       1.21818838      -0.97192384      -0.46262742
N       14.79409733       3.93935174      15.61556710       0.66836593      -0.27220528       0.99895863       0.49313997      -0.40354867      -1.52944528
N       13.89660562       3.55682174       0.88664988      -0.67048961       3.82234570      -2.36530145       1.29117936       0.94880252       1.14966466
Pb      13.07814969      30.82594691      16.41982415      -0.06228133      -0.54163320       0.24111727      -0.46679938       4.50241597      -0.91308256
Pb       9.18886339      30.11374300      16.76356192      -0.58021841       0.40419038       0.47732794       1.28800563       4.69806197       3.98991778
I       14.66390175      30.77336859       1.33155255      -0.09051565       0.39441223      -0.21689629      -3.64973311      -0.85077685       1.58345524
I        9.96716773       4.61302820       1.20292651       0.14074874       0.22757953       0.43846232      -3.15962207      -4.26206965       3.12278621
I       14.74834955       0.01680943       6.16373071       0.12876124      -0.05093062       0.33349335       0.84874429      -0.63405872      -3.71621072
I       10.33573579       4.93061291       5.93514252      -0.18140126       0.36165226      -0.00498422      -2.97336951       3.46997023       1.52281417
I       14.32872998       4.00375588       3.88661350      -0.19003332      -0.64178920       0.18750003      -2.44643874      -0.12131226      -2.61468087
I       10.15398047       1.74204398      -0.72368604       0.24083993      -0.17607551       0.14879346      -0.79573010       5.20472776      -2.42531717
H       10.44302544       9.85779105       0.07849710       0.03271222      -0.52216275       0.84443434       0.00236988      -0.08897314      -0.17842955
H       10.67833129      10.66793135      15.76419376      -0.83600111      -1.45573918      -0.08549172      -0.26802995      -0.23218018      -0.04138017
H        9.56423143       9.14625365      14.99677165      -0.06539688       0.70753005       0.72279325       0.12280489       0.27151165       0.12845910
H        8.91704143       7.36898401      17.01251329       0.67550530       0.02538170      -0.44216127       0.10611309       0.21225584      -0.22894231
H        9.57949474       7.65788843       0.84483993      -0.22148558      -0.08200324       2.11549867       0.08830094      -0.26992828      -0.16159034
H       14.14443401      10.84847712       4.44792547      -0.18487718       0.35488654      -0.64214000       0.19328486      -0.26202654      -0.51056397
H       15.03384909      10.64381094       1.73002124      -0.11609111      -1.49547853      -0.03998939      -0.14430915       0.01700130      -0.16818369
H       14.92637118      12.53324768       1.94342458       0.36285778       0.64759373      -1.97214869      -0.30324124       0.06220679       0.03240791
H       13.96636690      13.87406221       3.78513141       0.00063741       0.49028565      -0.75396969      -0.13484335      -0.21726439       0.01911977
H        7.16811029       9.76660434       2.37489346      -0.31824572       0.66839745       1.17234045       0.16690015       0.01851644       0.01881667
C       10.14133135       9.29078979      17.18489064       0.31081769      -0.15932403      -2.40463973      -1.01299306      -1.03578971       0.69098950
C       14.22639156      11.71895693       3.75529279       1.32257921      -0.13977868      -1.39714390      -1.19163765       0.23620664       0.44645362
N        9.87746638       9.71788503      15.86003611       0.63442404       0.14400620       1.03523824      -0.79121441      -0.30052013       0.31819120
N        9.41089038       7.85063338      -0.12095466      -0.44002175       1.53345390      -1.97827300      -0.33793379      -0.96802161       0.00179316
N       15.06099196      11.50147528       2.33279457      -1.16852130       0.54047029       2.32346005       1.06886914       0.66300927       0.47373522
N       13.77896259      13.01963751       4.29866559      -0.14916933      -1.65469440       1.08550073       0.72983089       0.67751031       0.81302042
Pb      11.97955252       6.09438083       3.57918549      -0.36314728       0.50191864      -0.36285909       1.29121247       1.09485261       0.92199824
Pb       8.00745374       5.91253867       3.48539572       0.18024575       0.28796446       0.21634077       7.27814505      -1.73887035      -2.04068318
I       13.42874794       8.36469966       5.64606770      -0.06056888      -0.05705383       0.05142912       2.97722379      -5.49326098       2.17991554
I       10.33194317      13.46398434       5.82577226       0.59405491      -0.32063174      -0.26055007      -0.28238367       0.82566049       0.28383674
I       14.24698443       7.58828731       1.40420506      -0.13174965       0.43883401       0.17049746       0.57301809       0.84397663      -1.45409743
I       11.27953982      12.10709453       1.09360777       0.10809019       0.30058663      -0.17759224       1.63140114       1.36002491      -1.84363255
I       15.74381424      11.91737062      16.40343939       0.09381970      -0.05435478      -0.09631521       1.78678527      -1.00480393       0.32942089
I        9.91373182       8.61026787       3.50215524       0.07301381      -0.01046754      -0.19954609       0.39200126      -3.76601130       0.54233810
H        3.14386995       2.84494812      12.39984122       0.35970259       0.88149317      -0.39888510      -0.21812951      -0.11895109       0.07043172
H        2.49175525       2.89193777      14.83534381      -0.22906475      -0.58951834      -0.76457879       0.24117993      -0.13443176      -0.17756907
H        2.36664417       1.00616099      14.80573861      -0.17688652       0.28011817       0.11735965       0.39460421       0.05175538      -0.08078957
H        3.53635364      30.82446696      11.87646444       0.09175374       1.62237696      -0.00306839      -0.12373427      -0.00131355      -0.29455609
H        3.64388394       1.00771421      11.12474964       0.11480503       0.46537030      -0.32731412      -0.69387297       0.29287009      -0.26891611
H        5.74974043       2.94655804       7.56268688       0.26203749      -0.37994148      -0.26373734       0.08519574       0.47894089      -0.02491433
H        6.33694839       2.62164600       9.80970856       0.22444097      -0.71744131       0.75878331       0.07772854      -0.04670015      -0.05928363
H        6.78418154       4.51581533      10.02262107       0.25423649      -0.65217096       0.96616619       0.10719948      -0.02994725       0.04040176
H        6.47592377       5.95174686       8.13011495       0.13797463       1.86096934       1.57904593       0.08753250       0.47087099      -0.26967946
H        5.95193266       5.06138213       6.70831934       0.01645964       0.61962425      -1.13337438      -0.03338357       0.05354282      -0.19392092
C        3.09745752       1.89572931      12.95493731      -1.18286736       1.79329141       1.46927002      -0.60412819      -0.73152199      -2.01053124
C        6.17718940       3.83150845       8.21879461      -0.14965056       0.40911879      -0.54382763      -0.90481825      -0.26055956      -0.15023866
N        2.40894172       1.93683455      14.25748076       1.18051045      -1.51375553      -0.77326280      -0.03225624      -0.64804894      -0.56641662
N        3.52665128       0.86195282      12.17353522      -0.15284245      -3.10936229       0.88461878       0.33584915       0.63612758      -0.69326173
N        6.49491210       3.59568794       9.46746384      -0.42066341       1.48183533      -0.47460305       1.51336564       0.00890423       0.07338573
N        6.36246341       5.08717879       7.67011343      -0.31863829      -2.69923654      -0.94517147       1.06956839       0.95740353       0.78781379
Pb       5.50388362      29.88742162       8.09385750       0.05850313       0.43280388      -0.30239170      -2.37672971       4.35699332       0.85703530
Pb       1.70359216      30.02580813       8.05397645      -0.51515785      -0.44668906       0.02532728       0.81895281      -1.31212572       1.12227407
I        7.01341915       0.25341332      11.03240074       0.00634864       0.03649485       0.25187547       3.15947349       0.05298378       1.37720912
I        2.58364938       5.06004280      10.66418644      -0.35237269       0.31019909       0.05023427       1.09515018      -2.28319458      -2.79540667
I        6.50059920       0.49199519      15.21623468       0.31034526      -0.02257473      -0.31405050       2.04654319       0.41463238       3.93413441
I        2.09196578       5.28930394      15.30602035       0.20394544       0.26736891      -0.53602891       6.72496533       2.34495334      -3.18052618
I        6.22454218       4.42499844      13.30166363      -0.08738306       0.30704848      -0.49569599      -1.05690780       0.55826774       4.74347471
I        3.00573639       1.49428501       8.67467270       0.45144937       0.12588067      -0.11459261      -0.29712740       1.22396886       2.91952166
H        1.55574992      10.65688171       9.30491117      -0.09732606       0.14385551       0.02113127      -0.14840501      -0.16236021       0.52910662
H        2.29470411       8.38386637       9.98690781      -0.38479928      -0.79608767       0.70118303      -0.01462940       0.07055679      -0.02834607
H        2.46738836       7.64404271       8.35728941      -0.16254454       0.65228256       0.61670584      -0.03438808      -0.22387982       0.25184063
H        1.93116243       9.46745939       6.59360008      -0.06392057      -2.06649573      -2.53369935      -0.39096484       0.02443684      -0.29622417
H        1.69030127      11.15603103       7.17984253      -0.22090009      -0.86591896      -0.96977981       0.22216738      -0.08044793      -0.14709928
H        6.96440684      10.29625425      13.49476183      -0.49717693      -1.30982947       0.17461098      -0.28517732      -0.33304708       0.22496611
H        7.61450917      12.12449680      14.75578881      -0.58972953      -0.55302779      -3.28504218       0.26703957      -0.00869361      -0.14637751
H        7.24521593      13.15390621      13.15970335       0.15886350       0.14722731       0.80418758      -0.08349164      -0.23503026      -0.19046669
H        6.39773653      11.98404502      10.97332102       0.26658229      -0.06534264      -0.59096346      -0.21186794      -0.05504622       0.06128333
H       15.43401858      13.18651981      13.94239500      -0.21743945       0.00410312       0.55563689      -0.14451804       0.25173647      -0.06539810
C        1.73488623       9.82006018       8.58098278       0.67947313      -2.56874557      -0.82581310      -0.30647005      -0.28944630      -0.10590508
C        6.89881387      11.18957689      12.87845654       0.60790076      -2.97025301      -0.49388018      -0.26420024      -0.44255732       0.43804489
N        2.10696329       8.50445695       8.99061383       0.04174176       0.28805404      -0.17199564      -0.06284899      -0.19907197       1.03322584
N        1.75170076      10.09643710       7.30388298       0.16059620       4.53769308       2.53322731       0.01281218      -0.02809381      -0.18245901
N        7.30515794      12.21624757      13.64052162       0.52221412       3.62724847       1.55084878       0.04436404       1.28546140      -0.75468779
N        6.65895613      11.07000206      11.54500813      -0.88520694       2.52403791       1.92968450       0.77887094       0.79233483      -0.34744094
Pb       3.86414359       7.02986949      12.80212652       0.91545334      -0.71269335       0.26594971       1.62074422      -6.71975487      -6.48795707
Pb      32.26883821       6.05455206      12.14105766      -0.11490865      -0.42790424       0.35884128       0.74062514       3.35602844       0.39378727
I        6.17784158       8.55424012      14.66039169      -0.03448463      -0.24873833       0.09978843      -0.71550378      -0.80955668       1.37575874
I        3.14879666      14.23176467      14.52468051       0.02587260      -0.02164210       0.50804283       4.65623378      -1.46264523      -1.23958796
I        5.63425365       7.97282251       9.98139980      -0.09735939      -0.26618168       0.50850767       2.36030446      -0.18365468      -1.92411290
I        2.96786866      12.40514736       9.89897926      -0.03003720       0.29881838       0.80105601       0.80870425       3.25920851      -0.13597125
I        6.63976329      11.05865237       8.33165140       0.21291663       0.62243293      -0.58719618       2.29428488       0.36868156      -2.85523335
I        2.09199728       9.41246366      12.97538888      -0.26574071       0.09319022      -0.46976975       0.78103446       0.99751952       0.07204990
H        9.71242950       2.00584353      11.09783692       0.36218733       1.70142804      -1.26434612       0.35640141      -0.24458171       0.16169111
H        9.96840125       3.58830460      13.14705186      -1.00671720       1.37165687       0.53921702      -0.17070815       0.25509644      -0.24173976
H        9.76831402       2.15685677      14.44773765       0.14723961       1.24476117      -1.82004904      -0.11534191      -0.13321626       0.23048941
H       10.54362185      30.84011318      12.94269568       0.37122734      -0.04899130       0.08863451      -0.24191644       0.04499631       0.25256626
H       10.65027730      -0.63092365      11.54614719      -0.40123152       0.67029320      -1.55952029       0.00711553      -0.04640434      -0.02869303
H       13.36456738       4.94556793       9.09615097       0.59418611      -0.69531922      -0.95822677       0.24293177      -0.13191077       0.43955306
H       12.68992533       6.24334307       7.07133275      -0.02337036      -1.41265896       0.99655190      -0.26232934      -0.07149590      -0.02720110
H       13.22618681       4.96942652       5.79769386       0.61201333      -0.79460869       0.40015030      -0.16508656      -0.32000071       0.55971071
H       15.52222073       2.66654793       7.35349622      -0.24936868       0.66967231       0.77469959       0.22322392      -0.19388781      -0.33037167
H       15.15048598       2.86165567       9.14070403       0.16835741       0.46505277       0.48733660       0.19038680       0.45228922      -0.32053261
C        9.87641107       1.63540809      12.18726744       1.08726051      -4.26958560       2.13346449      -0.09323120      -0.47452399       0.84524252
C       13.89526188       4.44247110       8.04550377      -0.80838233       1.76124147       2.02488649       0.17078365       0.43905656       0.33726277
N        9.68913517       2.49126356      13.32448933       0.39281777      -2.20608887      -0.41127254       0.48012749      -1.21578333       1.16703700
N       10.30941264       0.17846496      12.38567634      -0.89512628       1.80600746       2.64953748      -0.46047958       0.83058591      -0.14166446
N       13.15028462       5.17607140       6.95439811       0.09293899       0.93812122      -0.07136937      -0.89179737      -0.15724027       0.17800848
N       15.09624719       3.30576782       8.19533813      -0.21232911      -1.02057907      -3.22230009       0.36751853      -0.45796026       0.62277589
Pb      13.43389837      30.02024501       8.45000638      -0.46346562       0.19711732      -0.84555901       3.03076443      -1.87507401       0.64256499
Pb       9.37552753      30.61180258       8.38153855       0.57009062      -0.01354191      -0.74693600       3.26186427      -3.47138168       2.65101416
I       15.66676212      31.43894476      10.15965192       0.18421360       0.02036505      -0.10952346      -1.48709686      -2.48261152       5.55142323
I        9.69624413       5.24429049      10.12914897       0.28966017       0.54904307       0.67036240      -1.50163345       0.79504762       1.65664120
I       14.62507696       1.54719519      15.29569684       0.27529408       0.03860170      -0.00446330       0.32617760       2.32214296       1.14450409
I        9.98323121       5.85552294      14.63171390      -0.11303868       0.13761692      -0.12638417       2.19918048      -5.52687866       1.10313271
I       14.26005750       3.93015638      11.82737777      -0.11317772       0.36742382       0.10010876       1.60410196      -0.19859622       0.72279550
I       11.48788667       1.82476739       9.29597697       0.10610244      -0.46808113      -0.28550973      -3.10289546      -2.46341777       5.56682128
H       11.59967519      10.34194615       8.49562333      -0.37367590       0.15878740       0.98868489      -0.03407666      -0.04222018       0.00288046
H       10.99372522      10.96870233       6.27067128      -0.12503390       0.74821352      -0.26187329       0.01280851      -0.16910199       0.25845626
H       10.47260044       9.30939193       5.75729317      -0.07488358       1.20797955       0.43601787      -0.08683471       0.47376657      -0.28231267
H       10.65470967       7.58710838       7.45407160      -0.09400822       0.22045594       0.17883061       0.33344353      -0.18160696      -0.33492844
H       11.40822324       7.88528923       9.17677948      -0.31814133       0.65274153      -0.43463341      -0.28109988       0.24882097      -0.01667487
H       15.32928149      10.98974871      13.19620778      -0.40218230      -0.95856983       0.69337887      -0.07107885      -0.17050671       0.03450756
H       15.16546187      10.33581633      10.89464801      -0.67395838       1.33536720       0.86690471      -0.23835723       0.28422301       0.09592064
H       14.38667215      12.09573831      10.41829456       0.10247597       0.27810129       0.39525352       0.43026477       0.23526938      -0.10056172
H       14.83705160      13.88553018      12.32565484       0.10113678      -0.14317423       0.49270849       0.31502539       0.00425780      -0.25179735
H        5.96279320      10.23639658      11.11034620       0.42020245      -1.05682611      -0.03753209      -0.31056216       0.21927462       0.13355688
C       11.07241696       9.59236673       7.77939227       0.23193772      -1.17864082       0.79240251       0.83356278      -0.05184749      -0.10262898
C       14.92201041      11.80193021      12.49826464       1.82502958       1.78227658      -1.60568777      -0.07149905      -0.29268020      -0.00542208
N       10.70445280      10.02597011       6.51409048       0.07930388      -2.26488112      -1.16140939       0.89434688       0.15335681       0.83535667
N       10.90703058       8.31915556       8.16954191       0.49778560       0.24926524      -0.21219593      -0.03583077       0.47929572      -0.63945836
N       14.59852895      11.44932790      11.23246035       0.29576384      -0.75059140       1.15494238      -0.02757295       0.40555004       1.27101878
N       15.05399090      13.06641030      12.97879634      -1.10913850      -1.57333727      -2.74940700       0.52567470      -1.68058305      -0.42885240
Pb      12.31357407       6.76856259      12.41898702      -0.82318339      -0.91677945      -0.46840194      -3.57537057       0.70343095       0.09868374
Pb       8.02108966       7.02778569      12.22332896       0.12559828      -0.24014218      -0.04870515       1.57589337       1.88128248       2.89032407
I       13.97370034       7.66290507      14.59406078       0.30313219       0.22859762       0.33440862      -0.85238794      -0.19266719      -0.98751108
I       10.85320293      13.45401155      14.56161025       0.14062545      -0.63602284      -0.15087149       0.51568902      -1.02566517      -6.49605312
I       14.34677961       7.97758631      10.22646596      -0.04564391       0.11999417      -0.28617586      -1.13674354      -3.00649639      -0.84547250
I       11.39483620      12.74013052      10.20950625      -0.29121840       0.13588768      -0.03655669      -1.12307521      -1.76614012      -0.23399503