768
Lattice="32.0609120611585 -0.5112882221814271 -0.5475189371990378 0.2896562838185469 31.11650681404145 -0.5358671673453327 0.3216333527679892 0.2519783857508381 17.761452272036312" Properties=species:S:1:pos:R:3:forces:R:3:momenta:R:3 energy=-3621.8741344006544 stress="0.0 0.0 0.0 0.0 0.0 0.0 0.0 0.0 0.0" pbc="T T T"
H        3.40363104       2.74627360       3.62243074       0.60070604       0.36215129      -0.23352429      -0.06723919       0.10972901      -0.19966890
H        3.04700589       3.18028310       5.77661928      -0.23990901      -0.42446395       0.72095605       0.39512245       0.17103816       0.05010596
H        2.33599677       1.33608841       6.32049388       0.21711839       0.64636831      -0.53358914      -0.00287674       0.01597524       0.02181448
H        2.85942888      30.79629999       3.85669835       0.00773229       1.86167780      -0.87387765      -0.07870858      -0.03563496      -0.36139574
H        3.15200641       0.46708745       2.83426059      -0.07700710       0.23975742      -0.11043351       0.31110802       0.15743506       0.21300209
H        6.94881456       3.03484648      17.07724981      -0.28823643       1.82790900      -0.18317794      -0.05493975       0.07382168       0.29276136
H        6.27468796       3.14525837       1.80316228       0.06630749      -3.19007308      -0.41468268       0.12160504      -0.10097390       0.07437977
H        5.33340413       4.72956013       1.80275253       0.09979057      -0.07018983      -0.94660878       0.10002942      -0.05638021       0.22825163
H        5.60963504       6.16324976      17.25585476       0.31102714       0.41492741       0.53552810      -0.04871998      -0.05148675      -0.02224203
H        6.28635561       5.24841643      15.78328947      -0.17555831       0.20829133      -2.14966830       0.08482597      -0.04183151      -0.31105854
C        3.16981456       1.87407589       4.29834709      -1.68273954       0.87933212       2.42267899       1.54764195      -1.27966456      -0.58370069
C        6.39454848       4.15841548      17.51247887       0.63695360      -1.11050845       0.20359234       0.68655090       0.17264054      -0.10065450
N        2.78230408       2.11780758       5.58416634       0.39171653       0.34579047      -1.35222918       0.01246818       0.00830146       0.03867392
N        2.94605897       0.63596213       3.83051207       0.73845254      -3.97952316      -0.23258530       1.32350193       0.19753556       0.39639170
N        5.80801287       3.90482097       1.15360121      -0.20910965       3.54955704       1.79884574      -0.09370539       1.01011626       0.07029575
N        6.15569464       5.27735370      16.78370402      -0.33279256      -1.98123867       0.95199125      -0.66336876      -0.26185537      -0.73117969
Pb       5.54983973      30.37405667      16.92451050      -0.46057164       0.15931155       0.18174908      -0.33723176       5.31518700      -0.98436054
Pb       1.40003686      30.29206656      17.18389944       0.04628755       0.08878892      -0.23310507       3.04582282       0.04877139       5.44110564
I        7.15789617       0.13079392       2.10236521      -0.34055199       0.03799029      -0.05719679      -1.94881302       0.45531953       1.64372389
I        1.90409090       5.23299628       1.94209770       0.08716281      -0.17175250      -0.41129791       0.79826685      -0.04807684       1.92502633
I        6.71039374       0.76599765       6.84288519      -0.00405398       0.08491015      -0.49548628       0.11893070       0.51733265       2.02108626
I        2.00228116       5.42235726       6.23045135       0.08362663       0.32178753      -0.16203901      -0.48983989      -1.11763901      -0.02078449
I        5.91469217       4.11650163       4.67765980       0.08894130       0.59898470       0.02722494      -1.78098720      -1.45518420       1.94388241
I        3.24501895       1.65260911      17.95684024       0.06931160       0.06022393       0.19526041      -1.10784693      -1.50266803      -2.62801820
H        1.92699845      11.03591301      -0.41146815      -0.33701734       0.23567931       0.80676245      -0.12988927       0.02247132      -0.28494122
H        1.90681663       8.80204919       0.71381487      -0.16024267       0.38436019       0.86265822       0.00483172       0.26414096      -0.03743133
H        2.13423412       8.22112935      16.96360404       0.20227065       0.80496072       0.36261889      -0.20801897       0.18768864      -0.04726866
H        2.25504373       9.54302040      14.81063195       0.11089873       0.98843737       1.54731552      -0.11196916      -0.42073292       0.20169322
H        2.40516980      11.31855193      14.97090292      -0.17870525      -0.04900288       0.65294372       0.06082148      -0.02474563      -0.26247455
H        5.72771266      11.51968924       5.46842346       0.20379181       1.22577383      -0.68310079       0.07754924       0.05003671       0.07547814
H        6.47287407      13.99250086       5.25113546       0.25985118       0.37752814      -0.09989674      -0.19666899      -0.27194240      -0.19327265
H        6.82950490      13.86119959       3.26171385       0.12859828       0.62702869       0.56083396       0.30740648      -0.40426708      -0.27461777
H        6.72019137      11.36530162       2.13376111      -0.42865689      -0.74269474       0.98942776       0.14353063       0.25643196       0.14744013
H       14.26344845      12.99163286       5.25024057       0.09059181       0.65152358       0.41306600       0.15046922      -0.07187092      -0.02608066
C        2.13963987      10.31441959      16.81867091       1.60611595       0.59169566      -0.20074971       0.41798065      -0.46921081      -0.27903380
C        6.17005844      12.02507854       4.39333552      -0.53858962       0.67180624       1.73190610       0.12053184       0.62395237      -0.60770305
N        1.88940406       8.89733636      -0.28835576      -0.83353801      -2.41815866      -0.72981169      -1.03374723       0.16937852       0.86303125
N        2.26288624      10.39341400      15.50181067      -0.40046414      -0.79750542      -3.15081049      -0.54165450       1.09184056      -0.05722242
N        6.56608815      13.41500745       4.31741900      -0.19311969      -2.50209416      -0.93928760      -0.34085356      -0.13834742       0.05538442
N        6.14490163      11.15503398       3.28971269       0.34273304       0.04806694      -1.23662442      -0.32482479       0.81404839      -0.54764847
Pb       3.98578740       6.80997527       3.67080792      -0.41917049      -0.27315761       0.52310391       0.25773068      -0.79321858      -3.31562767
Pb      32.10444014       6.18223650       3.29356730       0.00314734      -0.07389403       0.28358243       1.68543389       0.35017528       1.56501496
I        5.54049556       8.57098754       5.96103764       0.14648690      -0.12120479       0.00192966      -0.97155181       2.08868862       0.83073827
I        3.27999459      13.32289568       5.65135548      -0.03187709      -0.01487346       0.53352733       5.55333788      -0.13720636       0.21423199
I        5.73374842       7.73553390       1.46865409       0.23897732       0.07354265       0.08152658      -1.68100904      -4.49096904       1.13996737
I        2.67829551      13.13065077       1.65697202       0.28552100      -0.03168044       0.00261290       0.19339852      -1.65437180      -1.51542144
I        6.86819664      12.34960972      17.30724666       0.13463234       0.24131931      -0.04540534      -0.80826433       1.00860794       1.75839366
I        1.84738630       9.23748592       3.57830943       0.13071875       0.02591132      -0.10253231      -4.72106492      -1.61185628      -1.73361529
H        9.74243593       3.45414090       3.47908956       0.23919850       0.30797254      -1.24547121       0.06772498       0.09135192      -0.27351245
H        9.62804854       3.60989760       5.80009074       0.27330473      -0.82516643      -0.33425827      -0.23999988       0.12919342      -0.14262508
H       10.91985107       1.95467783       5.94956984      -0.11875528      -0.73960604       1.38840197      -0.12495468      -0.08814874       0.29228493
H       11.96742745      31.79764143       3.48509353      -0.00068068      -0.83814769      -0.35498839       0.22202354       0.08570710      -0.15211479
H       11.01906194       1.45500213       2.29158808       0.20223996      -0.04871393       2.73907317      -0.19526463       0.02587012      -0.23758568
H       13.57847682       5.81977711       0.05232137      -0.08320581      -0.78421034      -0.95799522      -0.09451824       0.07954973       0.17822553
H       14.16082286       5.85510163      15.17759605      -0.06349537       0.58231139       0.37749166      -0.20374760      -0.16032097      -0.10952534
H       14.25303305       4.01483752      15.42185425       0.15169629      -0.07515127      -0.24991206      -0.21999963       0.12365538      -0.21913602
H       14.44884524       3.13563375      17.35429350      -0.31196514      -0.08675974       0.53567202      -0.23161475       0.02010972       0.11804214
H       13.74038340       3.54425756       1.15907155      -0.05391369       0.49277093       2.43451764       0.42045507       0.09521449      -0.12191861
C       10.41904954       2.56110793       4.01763539      -0.95877916      -1.10519956       1.34975608      -1.05998913      -0.75047377       0.52725143
C       14.01808847       5.07120998      17.25632907       0.01966683       0.75584330       0.14222491       0.14420154      -0.32276644      -0.01123863
N       10.21643839       2.69523247       5.35152414       0.45279503       0.66542760      -1.41695244      -0.06764103      -0.16677067      -0.64960427
N       11.16492218       1.44007570       3.40927517       0.01903866       2.03001107      -1.99045656      -0.12268778       0.30851108       0.11357911
N       14.18633256       5.01058764      15.86224219      -0.08021752      -0.55772886       1.11575755      -0.24463042      -0.14041409       0.06458239
N       13.70023974       3.68261450       0.20301136       0.50707743      -0.64977178      -3.40428731       0.90504507       0.69778658       1.60193399
Pb      13.23518155      30.72276412      16.83183394       0.76055021      -0.02852714       0.06676706      -4.95935198      -2.53883857       3.25171781
Pb       9.43816164      30.39469915      17.05121289       0.13281065       0.04813475      -0.55182675       3.21561295       4.11011339      -2.22087225
I       15.23541448      31.15366337       1.53496062      -0.14176659      -0.10164609      -0.29310748      -1.01350324      -0.96459007       3.08649140
I        9.91246796       5.43117784       2.12427965      -0.38237136       0.26763697      -0.04173018      -0.87110520      -1.11326823       0.45205802
I       14.97224288       0.50417071       6.30645249       0.20768006      -0.22032004       0.31415187      -0.90564620       2.00261048       0.82521128
I        9.52613226       5.77352640       6.58132833       0.06431173       0.43969952      -0.28259066      -3.32061967      -5.25417314       0.89659730
I       14.05181829       4.14243097       3.78037270      -0.15252006       0.62381024       0.11279553       2.36498025      -3.88304212      -4.64700689
I       10.40431277       1.76763286      -0.00420204       0.30142513       0.06438883       0.07746877       1.57447673      -1.28498718      -1.26303530
H       10.03607225      10.70538541       0.28331801      -0.06977134       1.84644260       1.13274474       0.00916865       0.09772382       0.17966683
H        9.89196722      11.52767835      15.50476491       0.37574649       0.89798500       1.06821754      -0.15340589       0.23770308      -0.19247714
H        9.84672609       9.85469762      15.34481690      -0.47364693      -0.87744479      -0.84014728      -0.15791263      -0.07966290       0.29696946
H        9.83786873       8.10099069      17.41599836      -0.12810389       0.10563767      -0.27365485      -0.32694304       0.11790756       0.18690005
H        9.70391952       8.76597183       1.20350107       0.35283986      -0.13429207      -0.66607667       0.12651509      -0.08823357      -0.07939148
H       14.42924857      10.93097126       4.55810253      -0.19061583      -0.63459409       0.17905700      -0.04457322       0.14791684      -0.40232979
H       14.33407650      10.31703883       2.24904661      -0.21807281      -1.50005688      -0.11977237       0.03410658      -0.16982976       0.16345986
H       14.04947309      12.02839466       1.81082921       0.14710905      -0.37433480       0.18764857      -0.04399306      -0.19095986       0.40822532
H       14.39415211      13.77005119       3.60917222      -0.47591197      -0.34309840       0.47977783       0.17927404      -0.11507724       0.08021852
H        5.66485101      10.10788200       3.55686842       0.31203341       0.21396556      -0.47016512      -0.42616003       0.11013788      -0.25654323
C       10.09793645      10.24981908      17.31854648      -1.14411367      -3.29772782      -0.15090780      -0.09548275       0.54568266      -0.01584740
C       14.29765997      11.69061216       3.77509144      -0.09850710      -0.08781767       1.18616089      -0.25393269       0.31883007      -0.22251302
N        9.82424077      10.61328373      16.01614439       0.41959973      -1.57137740       0.28062887       0.09039412       0.61989422       0.95177108
N        9.65336282       8.74839511       0.14409586       0.75640992       2.85672193      -0.44340578      -0.11201339       0.32076359       0.77664049
N       14.29112474      11.28114399       2.54649146       0.00061413       2.10592908      -1.48514935      -0.10384328       0.45983703       0.61160580
N       14.12384139      12.96336108       4.24196111       0.73783715       0.33264242      -0.67403479      -1.26951183      -0.78194223      -0.59649683
Pb      11.81946231       6.85939628       4.14571718       0.49742942      -0.04160808       0.03712355      -1.38968059      -3.33399264       1.80376977
Pb       7.70091666       6.90090259       4.20715030       0.49008709       0.03139573      -0.15581683       3.80787011      -0.29076202       5.12439449
I       13.94427018       8.25627051       6.19800752      -0.00253913      -0.05380897      -0.22228248      -2.80959682      -4.38385002      -0.72982589
I       10.72519662      13.67445908       5.88557733      -0.12956115       0.06772826       0.12580824      -1.45130189      -0.59578552       0.83532343
I       13.75888823       8.08805088       1.62093728      -0.50068882      -0.13989292       0.00118211      -2.04116715      -0.30594813      -0.62970647
I       10.56804612      13.10056566       1.45912497       0.07946423       0.29286977      -0.26568616      -0.01987733       1.07306976       0.33930925
I       14.91036078      12.19096047      16.79697406       0.10214432      -0.18892379      -0.17035887       3.95767719      -4.46014269      -0.36425866
I       10.01665867       9.57220017       3.98263974      -0.37191087      -0.61782825      -0.13920671       1.57620073      -1.19644952       1.44384729
H        2.37334700       3.32378369      12.72093431       0.15474524      -0.24660111      -0.50487743       0.14525170      -0.03804939      -0.04897457
H        2.56175536       3.19897906      15.17402240       0.44365692      -1.04716846      -0.19294977       0.17415279       0.17408648      -0.20155728
H        2.42654254       1.22537241      15.00937396       0.09680733      -0.19794066       1.18518085      -0.15775286      -0.27429118      -0.09799647
H        2.08229976      31.20879477      12.34753079       0.14779107       0.65426049      -1.14738645       0.45519515      -0.04809065       0.10095531
H        1.80904022       1.12945675      11.27656651       0.04469323      -0.19386116       1.06556079       0.20012786      -0.22893499      -0.07000332
H        5.87120270       3.38203972       7.70791278       0.37391833       0.96335205      -0.02761931       0.09110022       0.02045818      -0.37120914
H        6.43496568       2.38998974       9.75973825       0.22424309      -2.25469079       0.01394423      -0.23678498      -0.07683793      -0.03252763
H        5.97583640       3.78126393      10.74766159       0.21630345      -0.57727199      -0.69463245      -0.11505983       0.10508019      -0.11774890
H        5.27987627       6.01935831       9.31656104       0.18210428       0.10448331       0.08840615       0.11603602      -0.27982309       0.02718586
H        5.33222952       5.53634075       7.52950360      -0.12413859       0.73905121       1.47131462      -0.01337969       0.17410504      -0.20236594
C        2.30906600       2.24299062      13.16795750      -0.18412065      -0.29814704       0.52927604      -0.08384685      -0.18611513      -0.46065221
C        5.86796883       4.06199208       8.61863313      -0.07168155      -4.12618480       0.70681150       0.28326147      -0.56424490      -0.03184046
N        2.61992772       2.26007935      14.58062329      -0.57411340       0.90680405      -1.06025766      -0.39759867       0.26461118      -0.19349841
N        1.90051575       1.03113431      12.36703212       0.03080681       0.44216602       0.05690218      -0.15510356      -0.71078692       0.21091965
N        6.20907479       3.35465132       9.73537149      -0.29676868       3.40492030       1.79263320       0.26612840      -0.42646072      -0.89869416
N        5.39479706       5.30817530       8.55849108      -0.45306366       1.76429307      -3.79050499       0.53286064      -0.29363642      -0.17969217
Pb       5.18392506      30.05531349       8.17051789       0.29514650      -0.32409292      -0.12986884      -0.18063012      -0.86494869       1.46028368
Pb       1.36859857      30.24179035       8.03761858      -0.06987856       0.07528176       0.54098295      -1.39075223       3.80393447       0.26180522
I        6.81150249      -0.01445599      10.85067615       0.21736725      -0.02577062       0.17600218      -2.93018180      -0.29350833      -0.54861203
I        2.71369253       5.30139273      10.55648513      -0.52551823       0.08108619       0.26413203       0.01661202      -0.84396465      -0.82761180
I        7.10535534       0.84156521      15.46186187       0.03188232      -0.14017282       0.10276286       3.75410287       0.25631790       2.95650001
I        1.97551304       5.74138408      15.23797976      -0.02431841       0.38767344      -0.23669900      -0.36690670       1.64652537       1.79898626
I        6.17734376       4.01859726      13.07513556       0.15011402       0.32699425       0.11626330       2.79962092       0.65800098       0.85638473
I        3.36897012       1.45867101       8.98521296      -0.49749266       0.35079803      -0.06468926      -1.34404647       1.48640211       1.22697103
H        3.14628700      10.09056712       9.15003883      -0.33516425      -0.34241458      -0.62531050      -0.11792566      -0.03677051      -0.02287814
H        3.06378012       7.77186634       9.51678809      -0.04301120      -0.42885773       0.07599790      -0.46694025      -0.28430479      -0.01362697
H        3.22755125       7.32229399       7.72462567      -0.24966524       1.01567270       1.36967799      -0.39011523       0.03022413      -0.17665252
H        3.14855687       9.29478612       6.22295040      -0.15882417      -0.61589879      -1.17883137       0.07722790       0.00122071       0.01416058
H        3.23667168      10.91732181       6.95160376      -0.14821081      -0.32652249      -0.48027867       0.26422244       0.24276953      -0.03137516
H        6.58860897      11.33152707      14.35844321      -0.16722064      -0.40577559       0.16385406       0.00253670      -0.11033331       0.41299971
H        6.46808401      13.77000218      14.46997263      -0.04954725       0.25410007      -0.54796736      -0.23818882       0.24548808       0.22874869
H        6.26176290      13.92714423      12.61176144       0.22737847       0.16112603       0.42111327       0.16934787       0.38565195       0.10743010
H        6.35231229      11.96407390      11.43524412       0.13025998       0.27819514      -1.16431422      -0.31316279      -0.02258749       0.05132918
H       14.95691002      12.66219238      14.22139254      -0.25802028      -0.50473327       0.84065045       0.04262465       0.29704269       0.17250263
C        3.08311289       9.38063529       8.27900408       0.55020303       0.05386429      -1.16276247       0.28217971      -0.06829153       0.91901831
C        6.46598713      11.95029271      13.43586670       0.22750142      -0.93448648      -1.90202781       0.37859217      -0.09414822       1.24767229
N        3.08231098       8.06495895       8.53672355       0.13805440      -0.35745609      -1.36878458       0.81547340       0.15952087       0.86588258
N        3.12200723       9.88210745       7.02187918       0.12413385       1.09097638       3.39094374      -1.39112392       1.32209094       1.18278069
N        6.40279889      13.31554501      13.50693136       0.03914444       0.99251594       1.21936024       1.15839117       0.95503341       0.40399201
N        6.52278789      11.33207831      12.21207913      -0.54306732      -0.12208190       1.69383062       0.70260037       0.70146997      -0.74822636
Pb       4.28717916       6.76268806      12.92773351       0.09897968      -0.37527631       0.13303005       3.69285294       2.16097681       4.85084210
Pb      32.18966219       6.28058521      11.96089757       0.45804622      -0.20365259      -0.03975462      -2.28586010       2.51118576       2.75238864
I        6.47178012       8.10484120      14.93388976       0.12025285       0.17340573      -0.13674674       1.68593613      -0.90840513       3.69272467
I        3.36612695      13.94282580      15.14495512      -0.18393034      -0.00353169      -0.26205262       1.48583755      -1.47789060       0.70220244
I        6.03746993       7.93797106      10.51622528       0.10789107       0.18819479       0.15541140      -2.27006622       0.29686985       0.24372447
I        3.18318536      12.66608605       9.99142212      -0.15202722      -0.02482895       0.64067212      -1.14753886      -0.17479839      -0.18274737
I        7.05109071      11.88362064       8.39567858      -0.04975362       0.40489156      -0.30056687       1.31412839       2.69476678      -1.44188236
I        2.35589793       9.09595004      12.22734674      -0.08386023       0.46661061      -0.09619930      -1.35833717      -2.22660891       2.15757192
H       10.84770594       3.45666077      12.55943805       0.13185368       1.52550236      -0.16053585       0.14637153       0.02224447       0.23723879
H       10.26517199       3.52077976      14.93216642       0.16805409       0.76689004       0.56713479       0.11384756      -0.02063017      -0.00250784
H       10.34299940       1.74131978      15.15092250       0.28275384      -0.10517637       0.25035805       0.30483364      -0.03710375      -0.00924571
H       11.17466147      31.58581329      12.31806217       0.16221310       0.35369578      -0.63222989      -0.02256863       0.01876189      -0.01654402
H       11.20635067       1.52796139      11.29029527      -0.24054349       0.55960392       2.38648536       0.05977220       0.13789795       0.23203687
H       14.75276149       5.26211351       9.34749836       0.30930696      -1.75182934      -1.02720475      -0.15432012       0.05301508      -0.26674671
H       14.14160699       5.88031516       7.11654405       0.44214162      -1.47410541       0.61154046       0.30242112       0.01559024       0.23860367
H       14.31607620       4.30641775       6.43096318      -0.03619218      -0.68983204      -0.11174545       0.07570471       0.06112010      -0.10040622
H       14.70327206       2.40054489       8.03830918       0.16346284      -0.37580540      -0.12824941       0.20225701      -0.19629322      -0.09950902
H       15.09682078       2.80474522       9.78959282      -0.13460517       0.18201750      -0.49574629      -0.03430229      -0.18822454      -0.05886219
C       10.83689479       2.58902659      13.18738000      -0.05827895      -3.26588940      -0.78131167      -0.36245675       0.57151548      -0.28678162
C       14.69139275       4.42475674       8.54136768      -0.64564834       0.13454654      -0.10210121       0.06495506      -0.58073975       0.15175281
N       10.59962730       2.61508813      14.53753208      -0.40701637      -0.45432200      -1.75029975       1.54101470       1.50225556      -0.42638003
N       10.97888979       1.43945807      12.39505845      -0.01794932       0.56328676      -0.14785070      -0.23585752      -1.08773233      -0.09099633
N       14.34334916       4.84302207       7.30591832      -0.12961062       2.16870360       0.71271660      -0.31548690      -0.55904950      -0.96016864
N       14.82433365       3.10694361       8.80957448       0.10205261       1.84145891       0.38842753       0.60476822      -0.18107630       0.45446183
Pb      13.38918283      30.35311081       8.15400474      -0.19794353      -0.35966209      -0.22862203       2.87042081       0.52690084       1.04163361
Pb       9.24252101      30.43844110       7.90151335       0.34731340      -0.21659167       0.13234795       0.15632284      -3.83895289       3.16922745
I       15.49372616      31.17266436      10.46174355       0.00512341       0.20157750       0.08292346       0.68224651       1.27178220       0.63998670
I       10.42632161       5.42136476      10.32069032      -0.25948059      -0.01211128       0.20748235       0.97899091      -0.42590370      -1.31940438
I       15.14984657       1.19414269      15.39905556      -0.15339400       0.06297304       0.07593642       1.92108621      -0.61146575       1.26605671
I       10.18490929       6.24417204      15.31053057       0.18300814      -0.20993391      -0.32932799      -0.19008015      -2.39536942       0.00564043
I       14.12990901       3.96007530      12.14232523       0.02629348       0.60321625       0.35341699      -3.67196885      -0.25713643       0.74187649
I       11.38181213       1.73763330       8.64603956      -0.26761980       0.15489281       0.30797726       0.26353952       0.62253966       3.28887416
H       10.18442477      10.74696072       9.45961309      -0.16557354       0.49048063       0.52664265      -0.18857440      -0.03465096      -0.22742373
H       10.02388220      11.42590438       7.17143411       0.17247744       1.51894987      -0.24868329      -0.18032861      -0.03019687      -0.09040677
H        9.72665279       9.86273435       6.63754214       0.26298819      -0.69052771      -0.91402568      -0.10771029       0.18147219       0.29882109
H       10.05245087       7.87603974       8.37387365       0.19780905       1.04001493       0.38942678       0.57926687      -0.51258409      -0.08821190
H       10.08380189       8.48704811      10.04806930       0.20037076       0.08340407      -0.85937489      -0.03571277      -0.08285658       0.04520079
H       14.93859999      10.54575399      12.90072426       0.18488164      -0.38461960       0.63816513      -0.26992080       0.22363609      -0.15593035
H       15.76859855      10.45203405      10.45927378      -0.54785418      -2.16250021       0.27234281      -0.18389033       0.10654515      -0.12240684
H       15.94004965      12.09609816      10.28372832       0.12423633       0.18242467       0.62885606      -0.24050562      -0.26329922       0.09915159
H       15.25033029      13.56545136      12.74079988       0.16708755      -0.05970434      -0.13462274      -0.19409235       0.11486009      -0.19463871
H        6.38075212      10.33602101      12.07083149       0.16392473      -0.29979913      -0.00852033       0.00169886       0.11210255       0.23939814
C       10.05862556      10.02678170       8.67055608       0.76327066      -2.13371968      -0.62943753       0.00607512       0.03893630       0.39425223
C       15.26684178      11.51025157      12.38592158      -0.09300449      -2.10941279      -1.22475940       0.36402484      -0.94776776       0.06573050
N       10.01182493      10.46188856       7.41134313      -0.67127931      -0.91092422       1.37963794       0.61661202      -0.58491410      -0.52888172
N       10.19295244       8.68799900       9.02804217      -0.64804539       0.68354613       0.29224794       0.08044655      -0.60257550      -0.51870130
N       15.76262672      11.32930725      10.97574038       0.22533282       3.22798220       0.25445318       0.73770596      -0.00807110      -0.23004635
N       15.15589924      12.62202727      13.18637781       0.03535013       2.13218636      -1.24343693       0.51368733       0.41867939      -1.06316234
Pb      12.28332418       6.84302293      12.46900710      -0.43689575       0.13843292       0.10154989      -5.13622096       1.15188086      -0.35176955
Pb       8.39939651       6.61636384      12.62079485      -0.50694301      -0.00425709       0.19813614       0.79477622      -0.98623716      -4.81592499
I       14.01843013       8.54468679      14.45515676       0.43243931      -0.34547549       0.04539112      -0.74362849       2.48636962      -1.08437492
I       11.14911652      13.81934570      14.44878203      -0.29681183       0.11830786       0.31456981       1.13702265       1.89298492      -1.52629032
I       13.92627535       8.07136561      10.14180199       0.14122271      -0.19409219      -0.02634277      -0.43812272       2.21357872       1.94338440
I       10.95562385      13.67995435      10.61150512      -0.27217072      -0.27821170      -0.34894783      -3.06765943       1.65866701       4.02198964