768
Lattice="32.0609120611585 -0.5112882221814271 -0.5475189371990378 0.2896562838185469 31.11650681404145 -0.5358671673453327 0.3216333527679892 0.2519783857508381 17.761452272036312" Properties=species:S:1:pos:R:3:forces:R:3:momenta:R:3 energy=-3621.9698033975333 stress="0.0 0.0 0.0 0.0 0.0 0.0 0.0 0.0 0.0" pbc="T T T"
H        2.20633679       3.40229070       3.54105373       0.31028652       0.34382729      -0.19858882      -0.01159639       0.23185429      -0.05817005
H        2.33658772       3.54448166       5.96971309      -0.03531733      -1.16149267      -0.20440727       0.12284992      -0.01050982       0.09968156
H        1.38704816       1.61008194       6.09760646       0.57367421      -0.60263426       0.32256387       0.18079588      -0.26263604       0.09986432
H        1.62771705      31.35132202       3.43634595      -0.05646199       0.10479498       0.15792975      -0.18957450       0.00906602       0.21863366
H        1.69233545       1.14175982       2.41654215      -0.25766807       0.28498161       1.43528726      -0.08822070       0.13357080      -0.06516457
H        6.36517857       3.43803454      16.35190367       0.07400846      -0.08977458      -0.29961842       0.08832363      -0.28489284      -0.17637715
H        6.20228163       2.46272459       0.50720046       0.23604197      -1.14060149       1.70810212      -0.00462091      -0.08710468      -0.04714485
H        5.54928536       4.01946749       1.50058477       0.28079824      -0.95676861      -0.13762462      -0.04367995      -0.14594476       0.06651369
H        5.42385468       6.11106147      17.52401556       0.10091002       0.61860905      -0.20745591      -0.12216719       0.10911049      -0.29627024
H        5.45340705       5.64401514      15.80684961       0.29680605       0.10767754      -0.58594608      -0.00611933      -0.19845830       0.33568907
C        1.93877293       2.42092103       4.10872133      -0.24073622      -0.75298964       2.82214392      -0.69006788       0.58520393       0.69071521
C        6.12345699       4.17942307      17.14156448      -0.32873407       1.55455418      -1.04300480      -0.10970918      -0.20584145       0.23615710
N        2.00488964       2.51612931       5.49954334      -0.68445723       2.29581835      -1.98944593       0.41170789       1.02783721      -0.07087881
N        1.48676899       1.16114074       3.47661643       0.46262773      -0.30535950      -2.34636103      -0.41841134      -0.42519168       1.16639637
N        5.95290913       3.47331835       0.61032097      -0.39321178       1.71869571      -1.23640496      -0.51068802      -0.94193810      -0.20255421
N        5.71357037       5.41984479      16.76376322      -0.10954403      -2.06875429       1.91723490       0.79808790       0.59876946       0.13943070
Pb       4.75274176      30.40341647      16.68023896       0.41803390      -0.41459797       0.10162969       3.56242130       0.08226984      -4.95482348
Pb       1.23396868      30.84344933      17.33914576      -0.33336707      -0.24700693      -0.58665759       0.61363252      -0.83847242      -1.27316394
I        6.09905307      -0.45496630       1.81501741       0.25912121       0.46756458       0.24125815      -4.87040767      -0.43296081       0.96604879
I        1.41138866       5.58548551       1.76859511       0.07414369       0.16173675       0.42921035       0.35189893       0.60108117       0.12386072
I        6.88980508       0.92417625       6.51342501      -0.00001628      -0.19824071       0.07454709       0.12355567       0.63051726      -1.43785744
I        1.88260523       6.12081346       6.55438987      -0.08264944       0.16293610      -0.16328630       0.49001086      -1.01063377      -1.88414392
I        5.12501685       4.57835432       4.09030359       0.21242656      -0.04324279       0.02011344       0.14256397      -2.17862645       4.53408165
I        3.02532938       2.14934784      17.82730876      -0.05717925       0.16310140      -0.18759636      -0.01075350       1.96333917       6.28031821
H        2.88800123      10.50597926       0.44805942       0.21385748       0.60865738       1.19776291       0.04431948      -0.00231883      -0.19474641
H        2.08442255       8.22457242       1.25612356      -0.01364151       0.77983391      -2.55991577       0.11145435      -0.30597972       0.02461180
H        2.12279236       8.03507250      17.21927485      -0.09646010       1.12666217       1.26274634       0.23332656      -0.13478793      -0.01708406
H        2.17816068       9.74319893      15.43514957       0.34506617      -0.04272221       0.34550274       0.01665247       0.24348890      -0.04127220
H        3.35549529      11.26010767      16.10654574      -0.69768006      -1.47348990      -0.12519649      -0.14813009       0.28311636       0.21949545
H        6.87100406      10.82959994       4.01866770      -0.52847895       0.67711231       0.38118678      -0.43279272       0.21207219      -0.03530201
H        7.17049287      13.09155664       4.78928692      -0.04715948      -0.10820933      -0.09614052       0.27103998      -0.00232883       0.02401783
H        6.97169799      13.84508014       3.23397627      -0.25744176      -0.35484516      -0.35369159       0.04548446      -0.19873538      -0.22841605
H        6.39750815      12.17171192       1.36238457      -0.22315128      -0.17048463      -0.45875648       0.07094564      -0.10823554      -0.07196911
H       15.50648336      13.49297967       4.85709259      -0.17878296      -0.40535882      -0.22753298       0.33425661      -0.03671393       0.28862151
C        2.80584845       9.96058334      17.55508956      -0.03543986      -0.30893751      -1.28114502       0.59116874       0.70758045       0.15506436
C        6.67915986      11.73944720       3.35569271       0.88685701       0.18418412      -1.36055160       0.18223626      -0.60148506      -0.23846101
N        2.01942202       8.54206269       0.20208969      -0.26697901      -2.72016840       1.55875110      -0.11628719       0.26979166       0.02891871
N        2.77087292      10.27782433      16.26928145       0.40374015       2.36885852      -0.48269951       0.65996760      -0.50099651      -1.79216604
N        6.94619169      12.97361284       3.78652283      -0.08735990      -0.92035581       0.72314239       0.47410199      -1.29902571       0.27590484
N        6.38069664      11.43980628       2.08132557       0.28789646       2.68273718       2.11982231       0.22921918      -0.84658673       1.31543592
Pb       3.40967904       7.35708452       3.99679760       0.28376594      -0.34752311      -0.11721503      -0.80837207       2.71941572       4.24423951
Pb      31.56896508       6.48638763       3.62687476       0.25780182       0.07149252      -0.05277779      -7.10195829      -1.42691988      -2.00208859
I        5.57589668       8.63551124       5.94163662       0.24997661      -0.16005211      -0.37107699       0.46656301      -1.51555073      -0.20239929
I        2.66615075      13.72929765       5.81397611       0.00725063       0.11653920       0.11435700       0.15595222       1.76150089      -4.17864419
I        5.74993591       7.88083648       1.52218167      -0.15378262      -0.00391460      -0.07429598      -0.17893574      -1.23122325      -1.10819764
I        2.68054769      13.53662546       1.50577077      -0.11928101      -0.20875028      -0.17697571       2.39910520       0.32742911       0.94181380
I        6.69541586      12.34700701      16.69578516       0.03525567      -0.11190054      -0.23540590      -0.23947027      -1.25075508      -4.83340180
I        1.38028208       9.70475385       3.61152248      -0.09232751       0.06656100       0.01797494      -1.30243121       0.65296050       4.11714194
H       10.54886847       2.74134937       3.14311778      -0.11689165       0.13780515       0.44360564      -0.01132272       0.01392454      -0.14362496
H       10.44944298       3.31812289       5.44813198      -0.02692865      -0.38275251      -0.21252685       0.06804299       0.18645872      -0.42089717
H       10.63289639       1.68105392       5.98919980       0.08832414      -0.07272388      -0.30497559      -0.04682963       0.13130213       0.05188011
H       11.44255545      31.02669971       3.40137778      -0.18747025      -0.02407205       1.05938159       0.21212041      -0.05750102      -0.02623316
H       10.81174688       0.64713236       2.44620389       0.19277945       0.30324985      -0.75417829       0.07766671      -0.18451543      -0.19943953
H       14.05575582       5.34151012       0.64108667      -0.09083214       0.30671775       1.33789604       0.09877974       0.04348466      -0.23697738
H       14.38398024       5.69541580      16.16295307       0.00531215      -0.23789931       0.32212850       0.04148539       0.26422744      -0.01195905
H       14.68979771       3.97419770      16.03198722      -0.24417512      -0.43708218      -0.74244201       0.09258332      -0.19439540       0.03401822
H       14.61407149       2.59473592      18.11873879       0.27131413      -0.70340502      -0.04959234       0.09906118       0.30567765      -0.16119998
H       14.48612012       3.26530795       1.88212338      -0.38307965      -0.04267060       0.56955471      -0.24496042       0.33379186      -0.05449801
C       10.67902480       1.97519439       3.92730492      -0.05605129       0.73985834       0.00234651       0.67448662      -0.08017783      -0.42947970
C       14.44954204       4.60688834      17.93193971       0.53947597      -0.23246104       0.67424149      -0.66391861      -0.10755277       0.61205261
N       10.58318573       2.32431026       5.19439102       0.01455929       0.47221404       0.42587400       1.98540788       0.86317290      -0.02461765
N       10.92513815       0.79636047       3.45012973       0.05521755      -1.08990322      -0.61083473      -0.02807171       0.39956876       0.21177056
N       14.44936153       4.76919264      16.63288868       0.03099522      -0.28047844      -0.88949900      -0.91822937      -1.41432562      -0.56373087
N       14.25742695       3.21439854       0.87169505      -0.21391177       1.74265548      -1.62487556       0.62761998       0.37215889      -0.67069504
Pb      13.21014111      30.14969308      16.63328462      -0.26172842       0.41904168       0.36970500      -2.38858228       3.14513152      -0.62777773
Pb       8.99804289      30.18232232      16.88677453       0.16740069      -0.03592187       0.13730771      -0.27034136      -0.41302627      -0.69521580
I       14.43121852      31.01575478       1.60773943       0.14631835      -0.16869518       0.28887759      -0.83006068      -0.21882056      -0.86786782
I        9.80523467       5.29622157       1.92743355      -0.22545994       0.03716677      -0.08728921       2.90687062      -2.42533143      -0.04670961
I       14.77362112       0.47457207       6.44558208       0.00350759       0.37989292       0.09640482       1.04324952      -0.39154838      -0.94784586
I        9.66447904       5.82777500       6.27248495      -0.03496729      -0.05809530      -0.01753302      -0.46209338      -4.84506437       0.00569766
I       13.67295420       4.19862420       4.23329509      -0.15495234      -0.10544283       0.22266282       2.47094691      -1.58919461      -2.24149084
I       10.43095836       1.37585213      -0.06534822      -0.15199900      -0.01625857      -0.24486304      -0.13526272       0.37775580      -0.67323031
H       10.13274048      10.67716277      -0.29988883      -0.09228364       0.49063661      -0.52327407      -0.08732101      -0.30740906      -0.19005123
H       11.04376386      11.43203821      15.14819565      -0.57231986       0.21001251      -0.45265611       0.14411987      -0.09509098       0.08100325
H       10.17229791       9.81739326      14.59510870       0.14572235       0.90444227       0.24779318      -0.14434520      -0.01125083       0.09863134
H        9.78960428       8.25631883      16.33222485      -0.18034278       0.17915522       0.80185600       0.03057239      -0.09177334      -0.12339938
H        9.37095341       8.58389842       0.25324221      -0.07133444      -0.28890390       1.30288028      -0.07612052       0.03535026       0.20943126
H       15.39188168      10.98000475       4.50938006      -0.37605324       0.37929291       0.23350955       0.11251208      -0.09216467      -0.03206152
H       14.59095235      10.27524452       2.38231442       0.08922903      -0.41839388      -0.09950259      -0.05430524      -0.18345925       0.11332571
H       14.60792555      11.85549918       1.66308763       0.08154479       0.83268375      -0.83367981      -0.04788766      -0.11006531       0.09262804
H       14.94686583      13.71919603       3.08291838       0.32956587       1.25262340      -0.65768274       0.09416881      -0.05085774      -0.00873811
H        6.17621387      10.51573240       1.85503281      -0.15447403      -1.97153082      -0.67855820       0.00017188       0.31025061      -0.33724946
C       10.21080335      10.22444260      16.63208628       0.69645285      -0.69659723       0.03548074      -0.28634166       1.02131013      -0.46076792
C       15.11324437      11.76416858       3.71114913       0.64966773      -1.58256244      -1.38615799      -0.26670854      -0.44905223      -0.68156833
N       10.42132030      10.51949761      15.35320938       0.09057739      -1.05339124       1.53833784       0.57991179       0.51697170      -0.91948892
N        9.52529749       8.76456880      -0.70646804      -0.13965952      -0.03954037      -2.45621779      -0.58458765      -0.12930707      -0.31014748
N       14.83204830      11.26960602       2.49078277      -0.53371737      -0.45797031       1.48709357      -0.29555302      -1.43361324       0.39112365
N       15.27088798      13.06049095       3.89579245      -0.17483102       0.46016516       1.35768847       0.37146018       0.45717366      -0.76214272
Pb      11.61749095       6.80898938       3.95929779       0.17766142       0.35448681      -0.15908303      -2.08590758       2.07602979       2.57201800
Pb       7.68348925       6.89341436       3.80290116      -0.40903296      -0.09262192       0.12841599      -2.59402573      -1.38461793      -0.50715955
I       13.66298703       8.62334347       5.89386585      -0.08788172      -0.13579748       0.03643199      -1.55292425       1.73460564       0.24355933
I       10.62740971      13.56256934       5.43208430       0.29972406       0.23745856       0.02261547       0.19574645      -0.53249475       0.02245625
I       13.70599994       7.80160246       1.62878757      -0.05283861       0.05078492      -0.13270357       1.25018384       2.64816222      -2.78948210
I       10.52093192      12.92759058       1.09852679      -0.25184147       0.19624627      -0.14664460      -0.53010058      -3.17731758      -0.46993113
I       15.12503625      12.04075444      16.56801683      -0.15578102      -0.03029928       0.08406653      -0.24425713      -0.42572555       0.56723283
I        9.43868658       9.35573559       3.14741626       0.23453902      -0.11554097       0.17433370      -2.60586475      -1.29422380       0.82353598
H        2.30114063       3.27202171      12.20889929       0.04682163      -0.74281824       1.17290646       0.14433147       0.09320510       0.00682376
H        1.75462630       3.83140541      14.57414416       0.12644991       0.60320211      -0.63437741      -0.34324862      -0.25748579      -0.01490948
H        1.76167557       2.23044018      15.05673420      -0.03821174      -0.22316746      -0.34606218       0.23693655       0.14455970      -0.06108027
H        2.51239675      31.47906631      12.60008535      -0.21944615      -0.45397818       0.80995367       0.27053007      -0.20311442      -0.15634764
H        2.25128392       1.20846714      11.61796790       0.39998092      -0.56985441      -1.34031241      -0.38009454      -0.21232087      -0.15822631
H        6.86306592       3.29107717       7.54741540       0.39542288       0.30881572       0.21819753       0.33385485      -0.10778294       0.02308665
H        7.37390106       3.01122327       9.72511097      -0.07732549      -0.26185087       0.39889556       0.02242983      -0.08594834       0.16356255
H        6.71554724       4.64440675      10.29509967       0.31604691      -1.22220155      -1.41361250       0.18142608       0.10031916      -0.02878683
H        5.80295041       6.15596064       8.26695040       0.49740043      -1.35805976      -0.95805792      -0.03006057      -0.02664200       0.02493857
H        5.95544490       5.32899187       6.63881050       0.13884160      -0.43156267       1.47384906       0.04516674      -0.03906128       0.07921730
C        2.18064831       2.49361428      13.05642685      -0.77466661      -0.04640557      -2.64806873      -0.35468768       0.43393337       0.10429703
C        6.74886708       4.17687287       8.22128529       0.04987307      -1.47964213      -0.42052978       0.59341411       0.44896082       0.92769979
N        1.83868488       2.86890129      14.24521021       0.29138476      -0.27581688       2.50983296       0.52745128      -0.10581859      -1.03061207
N        2.21552239       1.22897105      12.61701337       0.17344326       1.54978824       0.43883548      -0.81912802      -0.65702482       0.96591931
N        7.08847286       3.96293109       9.48702217      -0.49242850       1.18668885       1.31034656       0.69146089      -0.39197491      -0.40769651
N        6.27169711       5.27727716       7.67667917      -1.08858678       3.11432900      -0.84529956       0.56022699       0.01918822       0.51047533
Pb       4.69542189      30.93382737       7.99799583      -0.40023964      -0.28378777      -0.21490348      -0.40759915      -1.27624599       2.90418167
Pb       0.44707416      30.39016821       8.14879003       0.38195652      -0.18488704       0.39343148       2.03954576       8.82137917       1.82335187
I        6.42051800       0.28270744      10.74304525       0.34690613       0.13870483       0.33410078      -0.21724763      -0.62907237       0.97715565
I        2.18369363       5.69396990      10.70064569      -0.09439868       0.17021621       0.21108790      -3.71121462       4.05812574       0.76760203
I        6.77939000       0.71017651      15.45660737       0.00660253       0.09217611      -0.13611350       3.56020385      -2.26419216      -2.24697731
I        1.74257646       6.34792083      15.27362796       0.44585062      -0.11105488       0.06018559      -2.72780474       1.46233238      -1.76317342
I        5.93085212       4.31955259      12.85893647      -0.05700807       0.12134621       0.32863807       1.81492927       0.82393137      -1.41467674
I        2.00107190       2.01714950       9.12943172      -0.01027765      -0.08435566       0.09070036       0.63834778      -3.80782310       0.16623040
H        2.93729756      11.13478517       9.05567472      -0.39569099       0.70467533       1.16874681      -0.08301829      -0.27833181       0.04672192
H        1.71341087       9.02112940      10.18731515       0.36017366       0.80865730      -1.56524606       0.26656623      -0.08226079       0.07061130
H        1.20899790       8.32210841       8.61255524       0.11074117      -0.31408821      -0.50090481      -0.07334754       0.05146562       0.22348021
H        1.79180226       9.55260862       6.54558362      -0.17182858      -0.47545270      -0.65616241      -0.14984166      -0.10336785      -0.00739830
H        2.62371352      11.26911204       6.65104571      -0.08219716      -1.08988246       0.56928045      -0.23188037      -0.08715293      -0.00594457
H        5.65527747      10.57510774      13.15385037       0.29439282       0.06401585       0.37379149      -0.18513004       0.05213755      -0.01491163
H        6.43932826      12.61291183      14.22118712       0.35541093      -0.06011663       0.72458350      -0.18170996      -0.03855982       0.27309267
H        6.58628620      13.58516402      12.70600848       0.01649105      -1.10875228       0.34979413       0.20687391      -0.20876640       0.15792373
H        5.90775626      12.14732807      10.58851325      -0.17157862       1.07948416      -1.43129724      -0.12941107      -0.20899482       0.05523629
H       14.72506044      12.69304125      14.30632305       0.00590118       0.11919462       0.17584119       0.22391848      -0.26379539      -0.04153803
C        2.27968492      10.23402508       8.53335971       0.76525633       1.62534865      -4.14784625      -0.18434505       0.37561037       0.55089501
C        5.93771523      11.50820309      12.56392572      -0.93011853       0.88251157      -1.49943125       0.34096518      -0.22027590      -0.51391609
N        1.72709820       9.15804836       9.12969204      -0.66969822      -2.38219792       2.70053576      -1.46434296      -0.30479529      -1.31720294
N        2.23282086      10.34204777       7.14632283       0.10522831       0.92011683       2.19021414      -1.87227376       0.65939082      -0.47525890
N        6.46186499      12.63090678      13.18539868      -0.29290264      -0.08704054      -1.25356756       0.53184803      -0.14634806      -0.77142678
N        5.54519135      11.41793273      11.23504100       0.61507107      -1.74378615       2.62212826      -0.88136676       0.56742370       0.51990239
Pb       4.13493754       7.04706674      12.85974830      -0.19082563      -0.18559044      -0.06232284       3.20083449      -2.19152486       0.30544578
Pb      32.23876679       6.89591961      12.29486204      -0.10895808      -0.74750842       0.03148477       2.13681921      -1.33499968      -1.28041491
I        6.33347189       8.35579458      14.91376991      -0.16978833       0.02857714      -0.07553819       2.57103220      -2.55840059       0.22817420
I        2.52120389      13.84931734      14.71925039       0.26435020      -0.04104866      -0.22090380       0.57691138      -3.48115606      -2.01295983
I        5.93043018       7.63596559      10.27889739      -0.25888933       0.48495930      -0.00684966      -0.93522039      -0.10964271       3.14907893
I        3.08698409      13.31374492      10.24137504      -0.19344401       0.55790192      -0.22885462      -0.37681186      -1.41794682      -2.49364010
I        6.72455284      12.14304993       7.70151825       0.09778353       0.03606996      -0.22902086       0.59279470       0.66485164       0.68773439
I        2.20900704       9.74705271      12.62626368      -0.13513720       0.05600696       0.03578023       0.43318292      -0.81794903       1.31498596
H        9.92084346       2.62461212      11.91732522       0.37376334      -0.09665263      -0.33613540       0.38627181       0.07119665      -0.06539019
H        9.93766463       3.53388073      14.11413430      -0.08317887       1.65677347       0.03804847       0.11157904       0.11990672       0.21245896
H       10.36931288       2.00492892      14.83106365       0.12816021       0.38919369       0.10209334      -0.12213609      -0.04436732       0.13036539
H       11.15610162      31.16475437      12.77067390       0.10227271      -1.38048763       1.18871078      -0.30823313      -0.15476705       0.02800531
H       10.62602589       0.32953778      11.60494315       0.01830965       0.21143479      -0.46436057      -0.30497535      -0.34051395      -0.10404835
H       12.54843986       4.99950153      10.26712171       0.76611326      -0.48036656      -0.66112835       0.10967075      -0.17478582       0.01712705
H       12.91188289       6.43874639       8.11072114      -0.03670899      -0.07351240      -0.24020356       0.13534492       0.07533709      -0.12808354
H       14.04788753       5.07228000       6.97285200      -0.27375421       0.77241589       0.43496071      -0.37713378      -0.02615502      -0.06238551
H       14.61546508       2.79033220       8.18904373      -0.01325075      -0.32045310      -0.71736795      -0.01281176       0.25006298       0.04262518
H       14.09299424       2.67587386      10.00216783      -0.27699513       0.19560646       0.22668099       0.16637194       0.17840197      -0.04119529
C       10.26576376       1.96836366      12.78412963      -0.53079182       1.58150171       0.05381540       0.12152778      -0.34477135       0.33332364
C       13.36576968       4.60354683       9.16736615      -1.80837032       0.43646453      -1.99763200      -0.80379495       0.84291507      -0.22102325
N       10.23549171       2.58277879      13.98089488       0.06628698      -3.07742658      -0.01445580      -1.05264558       0.85592321      -0.05652414
N       10.61731196       0.69986580      12.56694468      -0.09281974       1.08469378      -0.54576221      -0.37069164      -0.57695964      -0.66943886
N       13.29873286       5.41050299       7.98895053       0.90915095      -1.03047635       2.00765758       0.61527879      -0.35541072       0.06235632
N       14.00498099       3.29574786       9.08655238       0.74697489       0.40957575       0.58696386      -0.71887857       0.18560572       0.68874518
Pb      12.91033557      30.54261949       8.40930899       0.42093889       0.08836123      -0.33239415      -4.62749809      -2.04861750      -1.02526454
Pb       8.97664937      30.42109765       8.05149373      -0.04351509      -0.03892937      -0.33301061      -0.61275423      -1.04652834      -3.72881166
I       14.85251683      31.83769042      10.64710139       0.34595778      -0.41213445      -0.31365378       0.21114041       2.65476157      -1.59362926
I       10.29223194       5.96932339      10.20656233      -0.05281827      -0.25034335       0.48475400       1.64966538      -1.50198771      -1.45303255
I       15.39445821       0.91890368      15.93608089      -0.00129310       0.24163274      -0.26444668      -2.04235039      -2.08897504       0.70468748
I        9.88784641       5.95716217      14.96493381       0.34809771       0.15922959      -0.25577326       5.32486689       1.26827481       0.03103254
I       13.24056307       4.37762051      12.71106195       0.80868883      -0.08964017       0.00149091      -0.16745187      -2.59645947      -0.44506683
I       10.79424070       1.93310875       9.15826423      -0.45039491      -0.15654710      -0.23034330       2.25138948       2.71623610      -1.71378509
H       10.41703995      10.61474318       8.96130225       0.07402389       0.43590163      -0.26071615      -0.27595110      -0.29027102      -0.10812437
H       10.06052531      11.55339232       6.60487952       0.12900872      -0.06273474      -0.08457652      -0.30743486      -0.29852796       0.31546011
H        9.79104385       9.83467984       6.00508205       0.17868159       1.72459499       0.85066821       0.08854883      -0.16198229      -0.10701559
H        9.86761577       7.92637146       7.73421547       0.01317052      -0.05637546      -0.41419030       0.30032887      -0.18869297      -0.12299762
H       10.16150718       8.38354920       9.33215391      -0.00031571      -0.12076999       2.10439537      -0.28813134      -0.07722213      -0.05777000
H       14.74222479      10.66925239      13.18073508      -0.01101011       1.06877632      -1.24002574       0.03767332       0.35656744      -0.05699312
H       14.67443097      10.52954407      10.80699407       0.11932049      -0.22573517      -0.06893157      -0.39861911       0.06934774       0.07707364
H       14.91362480      12.24872198      10.51044681      -0.22933347      -0.19413880       0.61093652       0.12369380      -0.22907315       0.17605053
H       14.73949089      13.80143299      12.89864947      -0.10712277       0.18630054      -0.79669591      -0.09143425      -0.00153648       0.04101102
H        5.26085657      10.45655589      10.87630800       0.27433049       0.96011393       0.00284448      -0.13493278       0.08127229      -0.19630234
C       10.19396121       9.97404101       8.07002932      -0.21950456       0.70814030      -1.72255990       0.11213819      -0.89448209      -0.62255186
C       14.76268676      11.61837587      12.52103618       0.15323028       1.33880339       2.18637775      -0.27346183       0.33540805       0.34175416
N        9.98777683      10.54009179       6.78705659      -0.38853102      -3.14374152       1.70177253      -0.37723374       0.23972592      -0.20892890
N       10.07747203       8.69179054       8.39390802       0.23939510       0.48096376      -1.94732076      -0.41066632      -0.28809880       0.16974120
N       14.80599317      11.47366771      11.20003920       0.10478754       0.35997069      -0.97577685       0.32462446      -1.03168963       0.07680119
N       14.70916239      12.82051062      13.25505545      -0.07720073      -2.44328825      -0.20472854      -0.89995881       0.62960390      -0.80816765
Pb      12.34102001       7.13648605      12.53133918      -0.93677863       0.17790864       0.14156100      -0.19135276      -4.14373206       0.99551365
Pb       7.97974627       6.88715376      12.61922594       0.95478903       0.19484172      -0.05953553      -1.84383663       1.24658949      -3.11369971
I       14.68321784       8.30021945      14.44060086      -0.06999163      -0.11037995       0.43435830      -2.28591270       0.90621547      -0.89536248
I       10.59007759      13.80954303      14.36513438       0.34601786       0.12595564      -0.25626617      -1.37679050      -0.60573150       2.45011213
I       14.23108069       8.20365495      10.09715337      -0.03260333      -0.18043578       0.11509977      -1.38311769       0.15169965      -0.82647741
I       11.03322974      13.45394907       9.76673540       0.04715504      -0.12354630       0.13565164      -0.77006464      -1.91917901       2.06099165