768
Lattice="32.0609120611585 -0.5112882221814271 -0.5475189371990378 0.2896562838185469 31.11650681404145 -0.5358671673453327 0.3216333527679892 0.2519783857508381 17.761452272036312" Properties=species:S:1:pos:R:3:forces:R:3:momenta:R:3 energy=-3634.1482237833256 stress="0.0 0.0 0.0 0.0 0.0 0.0 0.0 0.0 0.0" pbc="T T T"
H        2.64872474       2.21850795       3.09968518      -0.25483389       0.73299150      -0.08044136      -0.25182102       0.08958655       0.02894821
H        2.11904562       2.99023307       5.36658613       0.15608086       0.67736217       0.05979560      -0.12000080       0.11362561       0.12786557
H        2.21148155       1.34584576       5.94633583       0.14833843       0.02341867       0.69127188      -0.03641149      -0.16559848       0.07595763
H        3.05005575      30.63402992       3.79135280      -0.17942686       0.74960152      -0.71663500      -0.12536208       0.11197631      -0.16476419
H        2.79281376      -0.00656947       2.66268324       0.25740036       0.01164692      -1.63496113      -0.08115702       0.27714816      -0.01217397
H        7.16069310       3.04809446      16.35960764       0.12513503       0.12091160       0.44244655       0.08501226      -0.00874215       0.02672354
H        6.69463671       2.32698658       0.95225262       0.24536279      -1.62457299       0.61851838       0.09250647       0.18480682      -0.05915853
H        5.89437512       3.96558476       1.38847282       0.11107000      -0.51843135       0.33705679       0.00855384      -0.23403507       0.17046240
H        5.73135981       5.72338731      17.38953649       0.03920523       0.20166974      -0.00061639      -0.20863523      -0.03075519      -0.04221270
H        6.22559701       5.23019733      15.68477119       0.14691138      -0.64982578       0.41401313       0.24538987       0.10978344       0.16726862
C        2.58234318       1.53374582       3.94910139      -0.11108088       1.26099915       0.68199509       0.17715198      -0.68940228      -0.03188249
C        6.72341767       3.80396183      17.16017703      -0.69886254       0.07887549      -1.64208126      -0.23933916       1.13417419       0.19513006
N        2.39287262       2.03057667       5.18591244      -0.13993423      -1.77569273      -2.01360758      -0.47259367       0.04892558       0.17389891
N        2.75074594       0.29043172       3.60348399       0.04992201      -1.61099131       3.11780876       0.02456349       0.57785291       0.17203354
N        6.34282106       3.23321092       0.68993674      -0.22120218       2.38693105      -0.66713500       0.22788411       0.59168775      -0.34389717
N        6.15807593       4.97482431      16.70571861       0.25829214       0.02742980       0.64861776       0.40013240       0.02895054      -1.21252115
Pb       5.23554553      30.32623173      16.57827157      -0.15518593      -0.41607043      -0.18513734       4.38912746      -3.29367579       0.12363303
Pb       1.17365937      30.41288079      17.40319571      -0.00115326      -0.09888837      -0.29134609      -1.29066873       1.64589340       2.98876496
I        6.67551971      -0.35285836       1.66136587       0.11322960       0.05239716      -0.15175672      -0.49124990       0.58127349      -1.53808826
I        1.67025565       5.22875083       2.22823180      -0.08532035       0.04059930       0.12908400       0.60211549       0.46242552      -1.09867238
I        6.52478312       0.03617862       6.40165998      -0.01101401       0.12929566      -0.23297797      -0.87386357       0.47016390       1.56757267
I        1.81844872       5.42667337       6.71237915      -0.22082338      -0.14612512      -0.13278774      -0.24579205      -0.83325941      -1.49346278
I        5.47749876       3.76480778       4.47354313       0.20703463       0.06746268      -0.20754614       0.91547749       1.22357796      -2.38573848
I        2.92748081       1.70194082      17.79413627       0.15783639      -0.05157073       0.18657034       4.38908969       0.99319172       1.79619473
H        2.84873553      10.46107517       0.51709384       0.10548582      -0.19424877      -0.05566967       0.19066080       0.15012485      -0.05162000
H        2.46633728       8.08797177       1.06639161       0.01986274       0.53752504      -0.22289256       0.05546868       0.07720375      -0.36043578
H        2.64536977       8.00686994      17.10850207       0.08480436      -0.46617628      -0.10151408       0.18747560       0.05162753       0.20021066
H        2.99022006       9.85400259      15.33904697       0.08956680       0.45424690       0.83498317      -0.01780531      -0.09070619      -0.02671342
H        3.24888124      11.37668430      16.20625507       0.20282672       1.50635691      -0.86634870      -0.22858964       0.19983153       0.17869843
H        7.08573664      10.18547890       4.40364991       0.09575454       0.92959279      -0.96504016      -0.08354410       0.00100975       0.11148946
H        7.52768385      12.41550387       5.16082130       0.02661806      -0.10099008       0.26370412      -0.10988992       0.01909497      -0.11631966
H        6.83082112      13.13841953       3.54786032       0.12360547      -0.14785217       0.56110224      -0.06960343       0.11080902       0.05750235
H        5.63427116      11.73676956       1.71350593       0.17556703      -0.57683052       0.67861289      -0.12697935       0.06039150       0.01806487
H       14.50962655      12.97951827       5.08671334       0.01294463      -0.53095800      -0.01600327      -0.02887984      -0.09949569       0.19608640
C        3.07211635       9.93547935      17.50290838       0.07478124       0.80045773      -0.66194980       1.65947395      -0.90211835       0.43208824
C        6.79455350      11.11518622       3.69889875      -0.25508154      -1.25244390       0.05401176      -0.96333225       0.51767575      -0.05311689
N        2.54628870       8.45168964       0.08836909      -0.28788915      -0.93119082       0.13214648      -0.36636115      -0.56748156      -0.76401515
N        3.16673003      10.38524863      16.24526750      -0.44632894      -1.75952772       0.86056203      -1.00208787       0.80781982       0.31027508
N        7.14827703      12.29269962       4.17807261      -0.17368643       0.69212118      -1.15833149      -0.36053049       0.24216688      -0.45767816
N        6.08025718      10.93495011       2.43838630      -0.10982826       0.30854021       0.54028924      -0.53302883      -0.00895929      -0.77206657
Pb       3.74149885       6.44100178       4.37326306      -0.18625988       0.21740472      -0.11236372      -3.30850904      -0.19680813      -2.80688644
Pb      31.82117223       6.37188405       3.86148288      -0.22697949      -0.10620165      -0.24007614      -0.30241512      -0.03274030      -1.83514205
I        6.05730936       7.99837218       6.13346848       0.02198615      -0.12012978      -0.05277329      -3.56204091      -1.60774687       0.24821774
I        2.59299644      13.51982117       5.83827975       0.21423641       0.14983662       0.39113368       1.36162714       1.19148806       0.40731635
I        5.29787976       7.48632507       1.75813409       0.29328410      -0.23141960      -0.13951023      -1.52800663       1.35803927      -1.18772371
I        2.74461722      13.08746747       1.52779337      -0.14824145      -0.00476007      -0.03526472       2.80560897      -1.55485395      -2.81748963
I        6.35069087      12.21381819      16.72003844       0.01707446      -0.55979493      -0.10677658      -0.06280584      -1.56385686       0.27866278
I        1.84493052       9.19625802       3.91447992       0.16183897       0.04256282       0.03905406       2.55064354      -0.61886235      -2.49348606
H        9.94934481       2.19399798       2.94415403      -0.08711462       0.08521800      -0.18431094       0.15877934       0.21461151      -0.17822531
H        9.80276279       3.10932503       5.08026196       0.06153713       0.97579239       0.23389449       0.01969819       0.03691154       0.04339294
H       10.59563143       1.64946320       5.89789255      -0.00280768       0.11105101       0.04656165      -0.10270508      -0.04772727       0.02188780
H       11.53973570      30.73668602       3.75843487      -0.17203223      -0.23879985       0.26337208      -0.06945039       0.05124970      -0.21879204
H       10.81474201       0.06416202       2.61262946       0.08202700      -0.48007058      -0.75815732      -0.31384207       0.02872012      -0.01056958
H       14.21302001       4.58084649       1.10333912      -0.06309840       0.47962071      -0.14858699       0.28005272      -0.01791321       0.12361519
H       14.78643876       6.39841709      16.63047239       0.23050790      -1.12922931       0.19007755       0.09859417       0.13037308      -0.04555599
H       14.68607999       4.83244381      15.54964501       0.08808221      -0.19251382      -0.85422874       0.05122119      -0.09481779      -0.10924363
H       14.12378087       2.15251250      16.78493349       0.04446010       1.47798916       0.57540270       0.00921010      -0.10142101       0.13661165
H       13.89455021       2.01197725       0.87956726      -0.17868327       0.00588429       1.55156369       0.01507091      -0.09612488      -0.04286108
C       10.32703808       1.56509178       3.82377034       0.11233816       0.18166157      -0.27280828       0.18942479      -0.16731314       0.63777695
C       14.49380657       4.35743733      17.72692765       0.75021245      -2.30231829       0.75668554      -0.07960306      -0.17811707       0.30594968
N       10.26213838       2.14717196       5.00861986      -0.07363332      -1.27968158       0.29840123      -0.81493849       0.22577318       0.78263410
N       10.85313301       0.32112257       3.58385661       0.04512406       0.61219720       0.12332824      -0.31984219      -0.13131087      -0.04101823
N       14.82199188       5.26426711      16.54972861      -0.71427692       1.30328011       0.80909084      -0.20431300      -0.45856921       0.00189252
N       13.88616188       2.57412242      -0.04652167      -0.11399405       0.49550916      -2.93488773       0.26399226      -0.30852936       0.59122163
Pb      13.23440199      30.02684021      16.61744931      -0.27819479       0.06818565       0.49862251      -0.05067440       1.54844635       0.39518775
Pb       9.23131148      30.04552202      16.26976859      -0.11566894       0.04788702       0.12111372       0.08113294      -1.42237617       1.38517177
I       14.71752757      30.94334758       1.34106360       0.05038081      -0.30521067       0.17216028       1.86641723       0.33636055       2.56215533
I        9.50537442       4.89019176       1.56063324      -0.18053920      -0.14743649       0.02118837       1.80331617      -0.06945197       1.72880052
I       14.67354590       0.55723246       6.63459705       0.14635391       0.27359800      -0.28704917       1.43188345      -0.72630944      -1.51846772
I        9.97359412       5.52192768       6.13255574      -0.12659243      -0.00888175      -0.15471461       1.71822862       0.39756415      -1.73472182
I       13.88345321       3.97068118       3.41195811       0.04071216      -0.21504369       0.31757845       0.43640657      -1.87853780       1.16796047
I       10.39027730       1.16477655      -0.26240359       0.21019510       0.13580468       0.03019904       2.03086058       1.39322580       0.54876659
H        9.48622792      10.43373071       0.13303427      -0.18549493      -0.51191749       0.15660771      -0.18877144      -0.01444610      -0.16018808
H       10.32923198      10.98325635      15.65578626      -0.01336785       0.73959930      -0.14012606       0.10260740       0.01799894       0.01862725
H       10.10074567       9.36331142      15.21574000      -0.13813917      -0.83916076      -0.77758450      -0.07446727      -0.12525144       0.32453045
H        9.64685956       7.73293217      17.07931504      -0.00379825       0.31386133      -0.20583880       0.00060838      -0.16022521       0.00768926
H        9.09776934       8.16110866       0.86172352      -0.09397583       0.00637407       1.89383864      -0.04396226      -0.08083423       0.14360683
H       14.44708203      10.68335102       4.28454757       0.32468213       0.97475977      -0.40691754       0.04050622      -0.12724213      -0.06851954
H       14.39551059      10.21188080       1.87980028       0.09658516       2.11783389       1.11872665      -0.13879846       0.06762316      -0.08090905
H       14.24863336      12.05115438       1.65768039      -0.06412549      -0.38520543      -0.26244966       0.04434909      -0.30247462      -0.20164769
H       14.37240632      13.65594796       3.54508749       0.14178272       0.66340840      -1.12026226       0.02948695      -0.05316995      -0.24260431
H        5.85567936       9.95977273       2.15532164       0.07810496       0.33022813      -0.05308546      -0.22137724       0.29789184      -0.10308951
C        9.77092341       9.79112597      17.23181199       0.72272692       0.90947122      -1.70902438       0.86470530       0.00725466      -0.09181000
C       14.44288894      11.57062331       3.58187421      -0.51279765      -2.15949669       0.77670944       1.13683143       0.44453989      -0.73325116
N       10.05722081      10.05090151      15.94241652      -0.06548403       0.05455029       1.71144296      -0.70330347       0.06954469      -0.28065839
N        9.23715017       8.33714857      -0.09303864      -0.17616454      -0.70524419      -1.20604048      -0.20975656       0.52890903      -0.39178738
N       14.29200378      11.24473776       2.31695562       0.11457684      -0.78712410      -0.99444971      -0.52958311       0.08763808       0.97507078
N       14.49356143      12.79435352       4.07327270      -0.13260344      -0.25018910       1.13833227      -0.70179896      -0.08457830      -0.16148438
Pb      11.70236262       6.27342103       3.36881949       0.00546201       0.14188505      -0.06352009      -1.74692098       1.56662358      -4.48225485
Pb       7.68643886       6.29487994       3.92544963       0.00457482       0.11589014       0.03680053       1.26464076      -0.15124143       1.29078566
I       13.44426968       7.96960535       5.43840021       0.10708728       0.16549874       0.17725260      -0.60388304      -1.09596527       1.31547184
I       11.21592162      13.23628582       5.61560976      -0.06330279       0.09421290       0.05154762      -1.72487754       0.30233724       1.88041422
I       13.59976357       7.64807340       1.03075606       0.06986691       0.19069118       0.22635969       0.31742614      -2.67944218      -1.78646980
I       10.59581012      12.77160077       1.44328079      -0.27420246      -0.13172957      -0.07749441       0.58674063      -0.52810948       3.15462820
I       14.61862754      12.06849115      16.56782729       0.29959144      -0.04415921      -0.18711417       0.13542011       0.24782993       1.70049674
I        9.71131421       8.77507754       3.36159019      -0.28683129       0.21349768       0.15200987      -1.44562015       1.85323416      -1.39424742
H        2.55064527       3.03485494      12.55466675       0.34669774       0.08169342       0.02002756       0.05212040      -0.11550543      -0.19067869
H        2.57824458       3.21242608      15.07701278      -0.07528659      -0.56772491      -1.17373086      -0.32212330       0.16543860       0.08122113
H        2.48384189       1.53652315      15.24523605       0.21310268      -1.31821241       0.05679734      -0.03407240      -0.13783761       0.00301432
H        3.00973832      31.15759651      12.57328431      -0.13115433      -0.18861766       0.52584772       0.03017556       0.03662755      -0.06653797
H        2.83984933       0.89300459      11.60150806      -0.16949536      -0.03384041      -0.36896153       0.07072710      -0.04601095      -0.08585534
H        5.28110949       2.28968866       7.65011998       0.18026992      -1.17866157      -1.20892266      -0.02800046       0.15633571       0.13163704
H        6.19316169       1.95536243       9.95481538       0.14167982      -1.87244101      -0.57175749      -0.10789742       0.14346257       0.23616447
H        6.52275072       3.52522512      10.33566287      -0.31701949       1.27921022      -0.15259027      -0.15225929      -0.10358303      -0.02558283
H        5.88160482       5.24685899       8.43006421      -0.11177211      -0.38491963       0.03498941       0.22287091       0.25173760      -0.13557641
H        5.24797220       4.46895427       6.82309744       0.19263215      -0.34432348       2.48840772       0.27145621       0.12181221       0.03856837
C        2.62153602       2.12738364      13.18064473      -0.84872318      -0.13392358       2.80762559      -0.37190879       1.25408546      -0.39458123
C        5.63778420       3.12967526       8.29131858      -0.02325846       0.52120787       4.08896110       0.66406964      -0.21990181       0.81094916
N        2.49928111       2.25076520      14.53764608       0.14585733       1.98231137      -1.23302798      -0.41076861       0.45001693       1.12489326
N        2.63932688       0.92791290      12.60850485       0.50046893       0.23989681      -0.94083269       0.40233355      -0.72024731      -0.56767004
N        6.14192482       2.87226201       9.55526087       0.06734038       0.90005278      -1.00958494       0.50409364       0.41900435       0.96477352
N        5.48565251       4.34831178       7.88690837      -0.09599100       1.59002062      -3.39237109       0.36128091      -0.58555071       0.40234383
Pb       5.02646441      29.73498494       8.03126931      -0.22201282       0.02369805       0.06330282      -1.04175237      -3.47434589      -0.25736540
Pb       0.96011600      30.03330070       8.29922560      -0.42654380       0.30058210      -0.09623885      -1.56156655      -2.18286808       2.62781519
I        6.49302223      -0.26255710      10.95508661       0.20123637      -0.22045140      -0.12475085      -1.93965119       0.24024965       0.20342581
I        2.14694039       5.27479742      11.02388552      -0.07222274      -0.10573153      -0.04339393      -0.69133221       0.94968594       0.27361089
I        6.58537802       0.41029331      14.74197540       0.14641558      -0.06901980       0.29990181      -0.26748125       1.13508265      -0.37500019
I        2.05724742       5.91220679      15.51798190       0.23468039      -0.00889376      -0.42640849      -0.35162039      -1.76621705      -1.47246659
I        6.11525179       4.05128816      13.30103273       0.07048319       0.40507889      -0.27522525       0.73095821       1.32617799      -0.42975960
I        2.83245314       1.43030315       8.76187860       0.09752770      -0.32524041       0.13084371       2.70832713       1.67077202       0.54074198
H        2.03371814      10.04459346       9.61742348      -0.12281086       0.33535029       0.15215248       0.05244103      -0.11192339      -0.03675107
H        1.81664937       7.61647188       9.65068912      -0.06024641       0.40813366      -0.40898802       0.14236844       0.16474202      -0.13107747
H        1.74138276       7.46156055       7.86899331       0.01488790       0.17361980      -0.28430867       0.05506072      -0.16354217       0.12633284
H        2.04400553       9.74810900       6.52938555      -0.03427580       0.30148576      -0.09808925      -0.09329366      -0.04036240       0.15346643
H        2.21304335      11.27231332       7.44611115      -0.03122576       0.17550131       0.11520998       0.35325862      -0.03197564       0.01690840
H        5.39683511      10.76344781      13.12413965      -0.10319504      -0.29822865       0.45050755      -0.03157984      -0.04438037      -0.05102879
H        5.82769066      12.86406747      13.97928742       0.37106606       0.04581632       1.08572585      -0.44153143       0.22978890       0.11888829
H        6.50520958      13.58175377      12.38739897      -0.23929364      -0.06218143      -0.15248323      -0.01607581       0.00036523      -0.18256453
H        6.06286715      11.81817167      10.35867258       0.02446630       0.85389617      -1.20822892       0.06169155      -0.01121841       0.00016221
H       14.79949488      12.91753701      13.93058785       0.13200173       0.14011303       0.57443390      -0.02164053       0.09234301      -0.03619821
C        1.92471273       9.50170284       8.62148465       0.44772921      -0.50927218       0.05229203       0.58750842      -0.43467226       0.65237838
C        5.70847848      11.57343133      12.42134958       0.15922653       0.49962809      -0.12195513       0.93645996       0.36829490       0.56424305
N        1.76896070       8.13094562       8.69045736       0.03089699       0.34665244       0.51682585      -0.35141698       0.88672070      -0.87978443
N        2.05887598      10.23787160       7.46485682      -0.13571857      -0.96541126       0.18977241      -0.06962286       0.16937015       0.21717491
N        6.04210111      12.74855203      12.96262834      -0.29797872      -0.36454405      -1.50909731       0.46833146      -0.51739480      -0.29342057
N        5.75746278      11.22665114      11.12945870       0.16107372      -1.67293342       1.73250711       0.89784096      -0.14885421       0.07125687
Pb       4.17258885       6.81431428      13.04987091       0.27231371      -0.12417971      -0.25966425       3.23089785      -0.61349517      -1.73069642
Pb      32.07865904       6.06078494      12.42009117       0.26328180       0.50945887      -0.08062745       3.78548232      -2.12576357      -2.45876103
I        6.35276093       8.30768439      14.85035662       0.11762775      -0.17781016      -0.25477921      -0.43712347       0.54979727       2.53229305
I        2.90776808      14.03598437      14.87433607      -0.15755818      -0.31649691      -0.00683595      -0.29339058      -0.54503379       2.18158031
I        6.24372136       7.49706448      10.06495682      -0.41622011      -0.10050257       0.67254103       0.61172539      -1.22351088       1.67707925
I        3.42218884      13.03190534      10.37223956      -0.12119235       0.09770292      -0.34438942       2.79037081      -0.64085017      -0.86835887
I        7.00421468      11.79823026       7.56442311       0.02854452      -0.13980966       0.16615164       0.30321733      -1.39341051       1.95184171
I        2.16419796       9.21097647      12.58491695      -0.03019398      -0.04269038       0.08675920      -2.39213923       2.55776397      -0.86316620
H       10.53992368       2.80731637      11.97624376       0.11197196      -0.07636987       0.14669415       0.17513219      -0.08523970       0.22831463
H       10.24907975       3.20570803      14.27839170      -0.16022605      -1.24182925      -0.42762699       0.09958150      -0.01318170       0.14683541
H       10.64512824       1.52337834      14.70266434      -0.09963260       0.39996478      -0.50160133       0.20408415       0.05648238       0.02824850
H       12.06276292      31.17859728      12.25811636      -0.23473851      -0.22548982      -0.24198368       0.19859834       0.08069122      -0.15691135
H       11.60716969       0.84870467      11.14346328      -0.09424163      -0.24541911       1.33617120       0.01581107      -0.07719752      -0.22209253
H       12.94304297       5.26383215       9.36356417       0.17658796       0.67051414       0.58935072       0.21876580       0.14461584       0.02345835
H       12.85865023       5.68993511       7.15814841       0.34150165      -0.35283234      -0.33557348      -0.01214569      -0.05670196      -0.08508136
H       13.36819195       4.06388632       6.64743233       0.07355325      -0.33121996      -0.38698054       0.00760654      -0.34654999      -0.08716767
H       13.61369999       2.38444661       8.67294525       0.04187483       0.21762239      -0.36763870      -0.11913299       0.07443743       0.27736742
H       13.46614981       3.08039989      10.26450696      -0.14674888       0.82584459      -1.48279551       0.34960450       0.03496912       0.06558981
C       10.79315050       1.98069486      12.68792562      -0.54034865       1.78923182      -0.39241912       0.52435773       0.27147789       0.01974445
C       13.20108984       4.46587799       8.67871042      -0.15362626      -3.32054346       0.95024691      -0.74931421       0.48808732       0.59793595
N       10.34793981       2.20414343      13.93916196       0.40522922       1.35909604       2.10620828      -0.27059362       1.07082323      -0.17966037
N       11.39966152       0.87132823      12.19949526       0.57143067      -1.63027281      -2.10568914      -0.03445722       1.20754850       0.53119548
N       13.18155043       4.72291869       7.39858514      -0.31983448       1.29655169      -0.28243862      -0.59133681      -0.67815161       0.03873279
N       13.39918218       3.24051844       9.21819785       0.16936573       0.87068617       1.25778399      -1.33648857      -0.20901543       0.30105413
Pb      13.14465357      29.93421632       7.86885838       0.10413591      -0.38372611       0.05928860      -2.17316715       2.74076279      -0.64368418
Pb       8.99596413      30.01621256       7.93144546       0.04113687      -0.31652330       0.22925923      -2.61218793      -0.90944539       3.62280139
I       14.69278906      30.88336263      10.42902505       0.32090821       0.07716164      -0.11935880      -3.08296549       2.02358140       2.95788009
I       10.07385375       5.13718711      10.30310991       0.09253457       0.06572584       0.31175415      -0.79867144       0.91671097       2.21622238
I       14.76659145       0.46123072      15.26816432       0.12813527      -0.03510658      -0.22480357       0.27435900      -1.31114363      -0.33907174
I       10.24434854       5.84603940      15.03518309      -0.16381131      -0.09795338      -0.04552001       0.19321431       1.09401531      -2.21152303
I       14.06878748       4.29184773      13.12411459       0.33208540       0.09624244      -0.35065146      -0.36568756       0.10992756      -0.32325835
I       10.74377447       1.31368488       8.45287682       0.13802802       0.26135621       0.19997414       2.90940103       1.53808749       2.81153489
H       10.48427409      10.36084450       8.93049547       0.13931901       0.86794270       1.08051660      -0.11987155      -0.04634604       0.04686418
H       10.96023502      11.04615168       6.68393227      -0.01286246       0.87225487       0.26603771       0.05957241      -0.10936986       0.09372247
H       10.41786583       9.53005914       6.04871573      -0.17486278       0.10807986       0.53257309       0.27078887      -0.03887656      -0.06346628
H        9.52197063       7.71569318       7.66196834      -0.03439882       0.32536663       0.75803589      -0.01592163       0.10124283      -0.12937384
H        9.72113347       8.26009667       9.45778921      -0.19920087      -0.48900887      -1.51323963      -0.24379578      -0.29551741      -0.06030762
H       13.77878117      10.95929215      13.22449078      -0.34286292       0.87136101      -0.99993786       0.05044798       0.03601636      -0.11720296
H       13.50498868      10.49408208      10.97517000       0.25604053      -0.56588841      -0.26499147       0.14028002      -0.08907847       0.00300080
H       14.75782579      11.94416325      10.24734389      -0.39937418      -0.13647336       0.68873388      -0.05433971      -0.17032454      -0.03074881
H       15.31739394      13.69261468      12.38970890      -0.27797981       1.31531325      -1.40664246       0.28232562      -0.00239769      -0.08961408
H        5.66752669      10.19242538      10.95938551       0.06978408       0.95320726      -0.27262258       0.04023452      -0.18966370      -0.05804647
C       10.24944634       9.67687699       8.14373282      -0.42336482      -1.41705982      -2.43716231       0.99588660       0.54638576       0.78274451
C       14.18617397      11.74039733      12.41875871       0.07199654       0.52984547       0.69013040      -0.57554639       0.47514805      -1.31896744
N       10.49739050      10.12154750       6.90202023       0.13386741      -1.52999045       0.23486238      -0.39111735       0.15382282      -0.23599009
N        9.64787290       8.44691230       8.41117641       0.56086484       1.02077862       1.12109948       0.68049664       0.23495300      -0.35540427
N       14.07528224      11.41976576      11.13825704       0.50627694       0.82818545       0.58741370      -1.53626495      -0.65880320      -0.39615653
N       14.77997967      12.89595187      12.91472910       0.09268234      -3.04415969       0.30257621      -0.54414718       0.77880731       0.25468760
Pb      12.06014104       6.70774663      12.61579056      -0.10959428      -0.00071370      -0.12224675       2.93433892       3.66759744       2.12839851
Pb       8.23966482       6.63208194      12.37395767      -0.36413510       0.00218872       0.33484657      -2.23285748      -0.84707232      -2.64487319
I       14.10294252       8.36822281      14.49182198      -0.12384459       0.23046802       0.12559102      -0.40971437      -3.24726443      -0.28159318
I       10.85657511      13.51176140      14.49215784      -0.25825868       0.15776530       0.23625132      -0.86702331      -1.25184694      -0.00513876
I       13.64949901       8.00501150      10.06481115       0.08708948      -0.00595771      -0.05859227       0.64469082       0.59815642       2.04070806
I       10.98750655      12.81444537      10.15921480       0.14295103       0.10460418      -0.11357979      -1.56735323      -0.15391430      -1.22651528