768
Lattice="25.888783465013457 -0.26065579461610544 0.6964381020346223 0.2808865365786464 25.92206712803773 0.0706842229014887 -0.6430174188924329 -0.04221809821815645 25.838360985299012" Properties=species:S:1:pos:R:3:forces:R:3:momenta:R:3 energy=-3654.107044983626 stress="0.005742422361097352 -7.995666756525533e-05 -4.808785916634849e-05 -7.995666756525533e-05 0.005670661906420588 0.00010511895391524536 -4.808785916634849e-05 0.00010511895391524536 0.005717139334670105" free_energy=-3654.107044983626 pbc="T T T"
H        9.35894381      13.42255131       3.07024649       0.00001519      -0.00000602       0.00000778       0.11595783      -0.20111017       0.15555373
H        9.21696922       4.28314120       2.93325484      -0.00000102       0.00001053       0.00000950       0.24240793      -0.01198032       0.11106362
H        8.35947602       4.26222862       8.62668498       0.00000021       0.00000769       0.00001075      -0.18765798      -0.02464607      -0.00055719
H        8.34235331      13.46712558       8.54315044      -0.00002619      -0.00002625      -0.00000313       0.09887449      -0.05501991       0.28044987
H        7.84138034      13.06071925       1.35465564      -0.00002095       0.00001698      -0.00001887      -0.02999476      -0.17189787      -0.01784440
H        7.65310819       4.87786677       1.33186491      -0.00001606      -0.00000804      -0.00002237      -0.15175937      -0.05310541       0.04865564
H        1.21482912      13.19046062      10.70443502      -0.00001722      -0.00001465      -0.00001541      -0.08349104       0.02971942       0.13811234
H        9.70076911      12.97504138      10.34529352       0.00003401       0.00001444      -0.00000402       0.00073714      -0.10241186       0.26125918
H        3.25446465       4.82543780       2.08719258       0.00000621      -0.00002338      -0.00000980       0.03023544       0.09812750      -0.03789480
H        0.49644526      11.02068128       2.86154053      -0.00000819      -0.00001597      -0.00000073       0.08596445       0.17770843      -0.04980985
H        0.63997459      11.64770823      10.09204946       0.00003109       0.00000068       0.00000428       0.03190743      -0.38677601      -0.04066663
H        8.87211353      11.46770208      10.71193196      -0.00000174       0.00000048       0.00000796      -0.05339043       0.03937909       0.04088922
H        1.73209361       4.37680250       4.06272847       0.00002243      -0.00007431       0.00000414      -0.01143496      -0.03790069      -0.02937124
H        2.50615823      11.42677994       1.35551623      -0.00000105      -0.00002511      -0.00002699      -0.02206481       0.05462699       0.01040326
H        1.77924690      10.79538199       8.02471927      -0.00001355      -0.00004368       0.00000767       0.28214071       0.04741468       0.00588830
H        1.89547938       6.94751728       7.79309522       0.00000193      -0.00000514      -0.00001588      -0.05150410       0.03309969      -0.04802713
H        9.62661313      11.86858716       4.78659060       0.00002699       0.00002569       0.00004011      -0.06358188      -0.17735756       0.03211593
H        3.40669965      12.89368321       1.68922172      -0.00002026      -0.00002204      -0.00000963       0.04005932      -0.01347380      -0.00208325
H        9.60829114       4.94162290      10.45701314      -0.00000917       0.00000252      -0.00001588      -0.02075887      -0.12225958       0.00555918
H        3.08144771       5.76668474       7.32396554      -0.00002495      -0.00000911      -0.00000329      -0.11007835       0.00006337       0.16375091
C        8.75229856      12.51125251       3.07119780      -0.00002559      -0.00001896      -0.00001200       0.25379585       0.16647432      -0.19589054
C        1.82975264      12.59678575       2.91042225      -0.00007395      -0.00003982       0.00004805       0.69029641       0.91271135      -0.08296818
C        2.14510245      12.54831690       9.02891036      -0.00003278       0.00000534       0.00002480       0.38308410      -0.25085252      -0.52365439
C        2.03511540       5.28305603       8.99804948       0.00001728       0.00000813      -0.00002147       0.01324287      -0.06192785      -0.00457407
N        2.70802839       5.68711238       1.98388521      -0.00003301       0.00004869       0.00003553       0.00025587      -0.56611668       0.39735007
N        0.79228623      11.89521991       3.30316115       0.00007152       0.00004695      -0.00000837      -0.20102294      -0.17519091       0.13266738
N        1.27061152      12.44629749      10.00412487      -0.00001134       0.00000474      -0.00002026       0.06172463       0.35124642       0.35267567
N        8.95670760      12.30871250      10.13327765      -0.00002941      -0.00000637      -0.00002165       0.70887975      -0.05469003      -0.10922468
N        1.30812581       5.26957974       3.79930442       0.00000786       0.00006619      -0.00002353       0.18885977       0.44068210      -0.18799585
N        2.62570594      12.27891227       1.91445750       0.00004614       0.00004762      -0.00001422       0.28159395      -0.12819852       0.66494942
N        8.84266473       5.54715561      10.16357625       0.00002163       0.00000286       0.00005241      -0.20240635       0.01404570       0.37213364
N        2.34100378       6.04637445       7.97366150       0.00001673      -0.00000624      -0.00000264      -0.91832695      -1.22255365       0.37321436
Pb       4.85575970       2.45805859      12.28324523      -0.00001217       0.00000528      -0.00000335      -1.12601834       0.02647253      -1.37246743
Pb      24.26627188       2.23310798      13.22587429      -0.00000262      -0.00000206       0.00001448      -1.57542999       2.28265922      -2.33687543
Pb       5.21538739       8.86700475       5.83609667      -0.00000182      -0.00000832       0.00000248       1.50593360       0.84168632       3.66191896
Pb       5.02356181       2.38752762       5.83136602       0.00001098      -0.00000963       0.00000453      -0.11758154       1.40693344       1.55368454
I        8.00794812       2.43217293      12.94835629      -0.00000137       0.00000841       0.00001305       0.50418920       1.19633436      -0.01503799
I        1.70314266      15.48124454      12.07464109       0.00000989       0.00000982       0.00000052       1.31967367       1.34614393       1.16576726
I        1.77974086       2.34162761       6.03621562      -0.00000469       0.00000692       0.00000900       1.66806276      -0.52447090      -0.57975328
I        8.25031445       2.38475766       6.06025867      -0.00000908      -0.00000462      -0.00000065      -1.50356314       0.04112596       0.99321950
I        5.04455268      12.17311028      12.22309850      -0.00000781       0.00001434      -0.00000284       0.62432159      -0.49184799      -0.79871260
I        4.66370447       5.69333121      25.11256258      -0.00000224      -0.00000889      -0.00000779      -1.61310581      -0.04090999      -0.95039616
I        5.08923992       5.62306296       5.57312079      -0.00000303      -0.00000531      -0.00000363       0.16830200      -0.09542689      -1.68642367
I        5.11748484      12.10200804       5.68175104       0.00000212      -0.00001034       0.00000536      -2.22186906       2.30205140       1.26161792
I        4.71954948      15.41142219       2.58573350      -0.00000015      -0.00000605       0.00000996       1.58310925      -0.23116372       1.00982156
I       24.53552679       2.21286546       3.56806564      -0.00000038       0.00000698       0.00000626      -0.54328306       0.47740459      -3.50640330
I       23.90708761       2.24849873      10.01921664      -0.00000254      -0.00000383      -0.00000210      -0.26456977      -0.52328836      -0.52117467
I        4.99796817       2.44102639       9.02198941       0.00000803       0.00000238      -0.00000002      -0.38486936       0.16016100      -2.09981750
H        1.19243738       6.94086274       2.59713604      -0.00002466      -0.00002988       0.00001053      -0.07787306      -0.03476017      -0.19548810
H        2.05135019      13.51804833       3.45720657       0.00000997      -0.00001461      -0.00001046      -0.02810971       0.00061816      -0.15957085
H        2.78175776      13.43856400       9.01155642      -0.00000480       0.00000256       0.00001994       0.09680894       0.19027808      -0.02258693
H        2.58374928       4.34241673       9.10697474       0.00000114       0.00000659       0.00000564      -0.09673631      -0.29367144      -0.05634956
H        2.94798639       6.31731229       1.21924479       0.00001115      -0.00000743      -0.00000039       0.16825003       0.12189529       0.04379741
H        0.23843089      12.20495937       4.10570773      -0.00000375       0.00001461       0.00002082       0.14535707      -0.19966588       0.14170576
H        6.59291491       5.56001915       7.83123399      -0.00000501      -0.00000002       0.00001072      -0.04384912      -0.16161490       0.31374053
H        0.95758900       4.90464899      10.66263548       0.00000920      -0.00000893       0.00000686       0.13540450      -0.06874717      -0.04239425
H        7.30365387      11.52015363       2.00936681       0.00001140      -0.00000082       0.00000504      -0.08476236       0.16452942       0.04068475
H        7.24096849       6.38794521       2.13076834       0.00000746       0.00001165       0.00000352       0.02899743       0.10337244      -0.05939127
H        6.77592407       6.77492228       9.05830653      -0.00001143       0.00000787       0.00000311      -0.22623524      -0.09514088       0.08094445
H        0.57512479       6.42842280       9.87353802      -0.00000716       0.00001308       0.00000352       0.04456988      -0.08025723       0.11023063
H        8.42696159      10.78339077       4.13962089      -0.00000044      -0.00000127      -0.00000481      -0.01053188      -0.00982424       0.02328679
H        8.49264201       6.86413922       4.27764679      -0.00001156       0.00003397       0.00001511       0.06729794       0.02628819       0.06555604
H        8.69286759       6.41726058      10.68499446       0.00002681       0.00000168      -0.00001491      -0.03421750       0.16325272      -0.16037968
H        6.92658962      10.90234847       9.18325161      -0.00003022      -0.00003259       0.00002056       0.08193536       0.02039533       0.02807156
H        0.52704649       5.58357882       4.38103471       0.00000439      -0.00001175      -0.00000069      -0.12225282      -0.00941361      -0.02587213
H        9.65638140       5.66918051       4.75845520      -0.00003576       0.00002308      -0.00001380      -0.10280987       0.17205384      -0.04750545
H        3.03309810      11.81472435       7.35998327       0.00001525       0.00000308      -0.00000964      -0.13368937      -0.03498169      -0.01579211
H        6.62194129      12.03467823       7.90054989       0.00000122       0.00000235      -0.00001471      -0.10036631       0.11879049       0.28874886
C        1.71689666       6.00014428       2.78744910       0.00002317       0.00001559      -0.00002089      -0.31428118       0.06195648       0.73263929
C        8.66761726       5.22345071       3.04089736       0.00001217      -0.00001233       0.00003278       0.08511228      -0.45088774       0.05181877
C        8.10751344       5.19919268       9.13180476      -0.00005029       0.00001335      -0.00004530       0.32598942      -0.19068655      -0.06993720
C        8.16397444      12.55068402       9.11399796      -0.00000439      -0.00000711       0.00000037       0.07011476       0.12892064      -0.85453921
N        7.90362111      12.34478028       2.08203029       0.00003035      -0.00001473       0.00006549      -0.97645862      -0.02234507       0.20144549
N        7.78917138       5.52335471       2.11109304       0.00000268       0.00000988      -0.00000566       0.57919933      -0.27315291       0.52663010
N        7.09633045       5.88914936       8.65821610      -0.00000092      -0.00003707      -0.00001625       0.24220688       0.64725540      -0.68064165
N        1.12421569       5.56471687       9.90140497      -0.00000851       0.00000640      -0.00000230       0.34148642      -0.37604959      -0.22275984
N        8.93264335      11.66670953       4.06052411      -0.00004745       0.00001967      -0.00008443       0.04681878       0.22088032      -0.11949706
N        8.94010838       5.96494579       4.08954439       0.00004246      -0.00005469      -0.00000180       0.42662639       0.73307200      -0.31407846
N        2.31636282      11.66201493       8.07482511       0.00000964       0.00005786      -0.00001269       0.37918124       0.42184632      -0.28634236
N        7.17654950      11.77927041       8.72219579       0.00007272       0.00004856       0.00002577       0.36169376       0.37499064       0.52391047
Pb      24.48662404       8.71114607      13.08508895       0.00000555      -0.00000181       0.00001558      -1.27239826      -1.43680525      -2.35291347
Pb       5.07437637       8.94036125      12.36576461      -0.00002802      -0.00000308      -0.00002240       0.69451980      -1.98835363       0.06608093
Pb      24.40495720       2.19814848       6.75550619       0.00000773       0.00001818       0.00000045       1.14702091      -0.46577495      -1.94095186
Pb      24.62888267       8.67657715       6.68321026       0.00000370       0.00000111       0.00000029       2.09642924      -1.28213241      -1.32825664
I        1.88461924       8.97280667      13.05802096       0.00000851       0.00000436       0.00000267       0.27011734       1.47652882      -0.61725648
I        8.38594362       8.93132102      11.78563077       0.00000718      -0.00000283       0.00000107       0.60954605      -0.35663818       1.32034056
I        8.39435815       8.81889346       6.40429998      -0.00000666       0.00001227      -0.00001585       1.96116204      -1.86960543      -0.16559565
I        1.94587458       8.87520274       5.57263375       0.00000094      -0.00000234       0.00000294      -1.07618501      -0.25958573       0.12158954
I       24.35017744       5.46478870      13.26184083      -0.00001791      -0.00000586      -0.00000661       0.40172700       0.64923771       1.26711535
I       24.12949104      11.89810622      26.21802398       0.00000839      -0.00001077       0.00000877      -0.35011425       0.20231057       0.18417304
I       24.50510479      11.92700995       6.95639638      -0.00000772      -0.00002485      -0.00000069       1.19540849      -1.15268423       0.28751023
I       24.51472480       5.45923160       6.97787674      -0.00000079      -0.00000472       0.00001294       1.95296524      -1.72916333       0.05670325
I       11.55173274       8.77225339       3.14770665       0.00001224       0.00000472      -0.00000107       1.07055961      -2.25824370      -0.41726465
I        6.16884953       8.93382805       2.61514123       0.00000767      -0.00000980      -0.00001467       1.54522718      -0.75548023       1.17013329
I        4.86603381       8.86312541       9.04521375       0.00001318       0.00000125       0.00000110       0.32955014       1.09766498      -0.90073393
I       25.46820544       8.73148622       9.98285087       0.00000517       0.00000599      -0.00000374      -1.12716124      -0.73594467       1.56252567
H        9.03743510      13.40144226      15.98942698       0.00001519      -0.00000602       0.00000779       0.11595783      -0.20111017       0.15555373
H        8.89546051       4.26203215      15.85243533      -0.00000102       0.00001053       0.00000950       0.24240793      -0.01198032       0.11106362
H        8.03796731       4.24111957      21.54586547       0.00000021       0.00000769       0.00001075      -0.18765798      -0.02464607      -0.00055719
H        8.02084460      13.44601653      21.46233093      -0.00002619      -0.00002625      -0.00000313       0.09887449      -0.05501991       0.28044987
H        7.51987163      13.03961020      14.27383613      -0.00002095       0.00001698      -0.00001887      -0.02999476      -0.17189787      -0.01784440
H        7.33159948       4.85675772      14.25104540      -0.00001606      -0.00000805      -0.00002237      -0.15175937      -0.05310541       0.04865564
H        0.89332041      13.16935157      23.62361551      -0.00001722      -0.00001465      -0.00001541      -0.08349104       0.02971942       0.13811234
H        9.37926040      12.95393233      23.26447401       0.00003401       0.00001445      -0.00000402       0.00073714      -0.10241186       0.26125918
H        2.93295594       4.80432875      15.00637307       0.00000621      -0.00002338      -0.00000980       0.03023544       0.09812750      -0.03789480
H        0.17493655      10.99957223      15.78072102      -0.00000818      -0.00001597      -0.00000073       0.08596445       0.17770843      -0.04980985
H        0.31846588      11.62659918      23.01122995       0.00003109       0.00000068       0.00000428       0.03190743      -0.38677601      -0.04066663
H        8.55060482      11.44659303      23.63111245      -0.00000174       0.00000048       0.00000796      -0.05339043       0.03937909       0.04088922
H        1.41058490       4.35569345      16.98190896       0.00002243      -0.00007431       0.00000414      -0.01143496      -0.03790069      -0.02937124
H        2.18464952      11.40567089      14.27469672      -0.00000105      -0.00002511      -0.00002699      -0.02206481       0.05462699       0.01040326
H        1.45773819      10.77427294      20.94389976      -0.00001355      -0.00004368       0.00000767       0.28214071       0.04741468       0.00588830
H        1.57397067       6.92640823      20.71227571       0.00000193      -0.00000514      -0.00001588      -0.05150410       0.03309969      -0.04802713
H        9.30510442      11.84747811      17.70577109       0.00002700       0.00002569       0.00004011      -0.06358188      -0.17735756       0.03211593
H        3.08519094      12.87257416      14.60840221      -0.00002026      -0.00002205      -0.00000963       0.04005932      -0.01347380      -0.00208325
H        9.28678243       4.92051385      23.37619363      -0.00000917       0.00000252      -0.00001588      -0.02075887      -0.12225958       0.00555918
H        2.75993900       5.74557569      20.24314603      -0.00002495      -0.00000911      -0.00000329      -0.11007835       0.00006337       0.16375091
C        8.43078985      12.49014346      15.99037829      -0.00002559      -0.00001896      -0.00001200       0.25379585       0.16647432      -0.19589054
C        1.50824393      12.57567670      15.82960274      -0.00007395      -0.00003982       0.00004805       0.69029641       0.91271135      -0.08296818
C        1.82359374      12.52720785      21.94809085      -0.00003278       0.00000534       0.00002480       0.38308410      -0.25085252      -0.52365439
C        1.71360669       5.26194698      21.91722997       0.00001728       0.00000813      -0.00002147       0.01324287      -0.06192785      -0.00457407
N        2.38651968       5.66600333      14.90306570      -0.00003300       0.00004869       0.00003553       0.00025587      -0.56611668       0.39735007
N        0.47077752      11.87411086      16.22234164       0.00007152       0.00004695      -0.00000837      -0.20102294      -0.17519091       0.13266738
N        0.94910281      12.42518844      22.92330536      -0.00001134       0.00000474      -0.00002026       0.06172463       0.35124642       0.35267567
N        8.63519889      12.28760345      23.05245814      -0.00002941      -0.00000637      -0.00002165       0.70887975      -0.05469003      -0.10922468
N        0.98661710       5.24847069      16.71848491       0.00000786       0.00006619      -0.00002353       0.18885977       0.44068210      -0.18799585
N        2.30419723      12.25780322      14.83363799       0.00004614       0.00004762      -0.00001422       0.28159395      -0.12819852       0.66494942
N        8.52115602       5.52604656      23.08275674       0.00002162       0.00000286       0.00005241      -0.20240635       0.01404570       0.37213364
N        2.01949507       6.02526540      20.89284199       0.00001673      -0.00000624      -0.00000264      -0.91832695      -1.22255365       0.37321436
Pb       4.53425099       2.43694954      25.20242572      -0.00001217       0.00000527      -0.00000334      -1.12601834       0.02647253      -1.37246743
Pb      23.94476317       2.21199893      26.14505478      -0.00000262      -0.00000206       0.00001448      -1.57542999       2.28265922      -2.33687543
Pb       4.89387868       8.84589570      18.75527716      -0.00000182      -0.00000831       0.00000248       1.50593360       0.84168632       3.66191896
Pb       4.70205310       2.36641857      18.75054651       0.00001098      -0.00000963       0.00000453      -0.11758154       1.40693344       1.55368454
I        7.68643941       2.41106388      25.86753678      -0.00000137       0.00000841       0.00001305       0.50418920       1.19633436      -0.01503799
I        1.38163395      15.46013549      24.99382158       0.00000989       0.00000982       0.00000052       1.31967367       1.34614393       1.16576726
I        1.45823215       2.32051856      18.95539611      -0.00000469       0.00000692       0.00000900       1.66806276      -0.52447090      -0.57975328
I        7.92880574       2.36364861      18.97943916      -0.00000907      -0.00000462      -0.00000065      -1.50356314       0.04112596       0.99321950
I        4.72304397      12.15200123      25.14227899      -0.00000781       0.00001435      -0.00000284       0.62432159      -0.49184799      -0.79871260
I        4.98521318       5.71444026      12.19338208      -0.00000224      -0.00000889      -0.00000778      -1.61310581      -0.04090999      -0.95039616
I        4.76773121       5.60195391      18.49230128      -0.00000303      -0.00000531      -0.00000363       0.16830200      -0.09542689      -1.68642367
I        4.79597613      12.08089899      18.60093153       0.00000212      -0.00001034       0.00000536      -2.22186906       2.30205140       1.26161792
I        4.39804077      15.39031314      15.50491399      -0.00000015      -0.00000605       0.00000997       1.58310925      -0.23116372       1.00982156
I       24.21401808       2.19175641      16.48724613      -0.00000038       0.00000698       0.00000626      -0.54328306       0.47740459      -3.50640330
I       23.58557890       2.22738968      22.93839713      -0.00000254      -0.00000383      -0.00000210      -0.26456977      -0.52328836      -0.52117467
I        4.67645946       2.41991734      21.94116990       0.00000803       0.00000238      -0.00000002      -0.38486936       0.16016100      -2.09981750
H        0.87092867       6.91975369      15.51631653      -0.00002466      -0.00002988       0.00001053      -0.07787306      -0.03476017      -0.19548810
H        1.72984148      13.49693928      16.37638706       0.00000997      -0.00001461      -0.00001046      -0.02810971       0.00061816      -0.15957085
H        2.46024905      13.41745495      21.93073691      -0.00000480       0.00000256       0.00001994       0.09680894       0.19027808      -0.02258693
H        2.26224057       4.32130768      22.02615523       0.00000114       0.00000659       0.00000564      -0.09673631      -0.29367144      -0.05634956
H        2.62647768       6.29620324      14.13842528       0.00001115      -0.00000743      -0.00000039       0.16825003       0.12189529       0.04379741
H       -0.08307782      12.18385032      17.02488822      -0.00000375       0.00001461       0.00002082       0.14535707      -0.19966588       0.14170576
H        6.27140620       5.53891010      20.75041448      -0.00000501      -0.00000002       0.00001072      -0.04384912      -0.16161490       0.31374053
H        0.63608029       4.88353994      23.58181597       0.00000920      -0.00000893       0.00000686       0.13540450      -0.06874717      -0.04239425
H        6.98214516      11.49904458      14.92854730       0.00001140      -0.00000082       0.00000504      -0.08476236       0.16452942       0.04068475
H        6.91945978       6.36683616      15.04994883       0.00000746       0.00001165       0.00000352       0.02899743       0.10337244      -0.05939127
H        6.45441536       6.75381323      21.97748702      -0.00001143       0.00000787       0.00000311      -0.22623524      -0.09514088       0.08094445
H        0.25361608       6.40731375      22.79271851      -0.00000716       0.00001308       0.00000352       0.04456988      -0.08025723       0.11023063
H        8.10545288      10.76228172      17.05880138      -0.00000044      -0.00000127      -0.00000481      -0.01053188      -0.00982424       0.02328679
H        8.17113330       6.84303017      17.19682728      -0.00001156       0.00003397       0.00001511       0.06729794       0.02628819       0.06555604
H        8.37135888       6.39615153      23.60417495       0.00002681       0.00000168      -0.00001491      -0.03421750       0.16325272      -0.16037968
H        6.60508091      10.88123942      22.10243210      -0.00003022      -0.00003259       0.00002056       0.08193536       0.02039533       0.02807156
H        0.20553778       5.56246977      17.30021520       0.00000439      -0.00001175      -0.00000069      -0.12225282      -0.00941361      -0.02587213
H        9.33487269       5.64807146      17.67763569      -0.00003576       0.00002308      -0.00001380      -0.10280987       0.17205384      -0.04750545
H        2.71158939      11.79361530      20.27916376       0.00001525       0.00000308      -0.00000964      -0.13368937      -0.03498169      -0.01579211
H        6.30043258      12.01356918      20.81973038       0.00000122       0.00000235      -0.00001471      -0.10036631       0.11879049       0.28874886
C        1.39538795       5.97903523      15.70662959       0.00002317       0.00001559      -0.00002089      -0.31428118       0.06195648       0.73263929
C        8.34610855       5.20234166      15.96007785       0.00001217      -0.00001233       0.00003278       0.08511228      -0.45088774       0.05181877
C        7.78600473       5.17808363      22.05098525      -0.00005029       0.00001335      -0.00004530       0.32598942      -0.19068655      -0.06993720
C        7.84246573      12.52957497      22.03317845      -0.00000438      -0.00000711       0.00000037       0.07011476       0.12892064      -0.85453921
N        7.58211240      12.32367123      15.00121078       0.00003035      -0.00001474       0.00006550      -0.97645862      -0.02234507       0.20144549
N        7.46766267       5.50224566      15.03027353       0.00000268       0.00000988      -0.00000566       0.57919933      -0.27315291       0.52663010
N        6.77482174       5.86804031      21.57739659      -0.00000093      -0.00003707      -0.00001625       0.24220688       0.64725540      -0.68064165
N        0.80270698       5.54360782      22.82058546      -0.00000851       0.00000640      -0.00000230       0.34148642      -0.37604959      -0.22275984
N        8.61113464      11.64560048      16.97970460      -0.00004745       0.00001967      -0.00008443       0.04681878       0.22088032      -0.11949706
N        8.61859967       5.94383674      17.00872488       0.00004246      -0.00005469      -0.00000180       0.42662639       0.73307200      -0.31407846
N        1.99485411      11.64090588      20.99400560       0.00000964       0.00005786      -0.00001269       0.37918124       0.42184632      -0.28634236
N        6.85504079      11.75816136      21.64137628       0.00007272       0.00004856       0.00002577       0.36169376       0.37499064       0.52391047
Pb      24.16511533       8.69003702      26.00426944       0.00000555      -0.00000181       0.00001558      -1.27239826      -1.43680525      -2.35291347
Pb       4.75286766       8.91925220      25.28494510      -0.00002802      -0.00000308      -0.00002239       0.69451980      -1.98835363       0.06608093
Pb      24.08344849       2.17703943      19.67468668       0.00000773       0.00001818       0.00000045       1.14702091      -0.46577495      -1.94095186
Pb      24.30737396       8.65546810      19.60239075       0.00000370       0.00000112       0.00000029       2.09642924      -1.28213241      -1.32825664
I        2.20612795       8.99391572       0.13884047       0.00000850       0.00000436       0.00000267       0.27011734       1.47652882      -0.61725648
I        8.06443491       8.91021197      24.70481126       0.00000718      -0.00000283       0.00000107       0.60954605      -0.35663818       1.32034056
I        8.07284944       8.79778441      19.32348047      -0.00000666       0.00001226      -0.00001585       1.96116204      -1.86960543      -0.16559565
I        1.62436587       8.85409369      18.49181424       0.00000094      -0.00000234       0.00000294      -1.07618501      -0.25958573       0.12158954
I       24.02866873       5.44367965      26.18102132      -0.00001791      -0.00000586      -0.00000661       0.40172700       0.64923771       1.26711535
I       24.45099975      11.91921527      13.29884348       0.00000839      -0.00001077       0.00000877      -0.35011425       0.20231057       0.18417304
I       24.18359608      11.90590090      19.87557687      -0.00000772      -0.00002485      -0.00000069       1.19540849      -1.15268423       0.28751023
I       24.19321609       5.43812255      19.89705723      -0.00000079      -0.00000472       0.00001294       1.95296524      -1.72916333       0.05670325