768
Lattice="32.0609120611585 -0.5112882221814271 -0.5475189371990378 0.2896562838185469 31.11650681404145 -0.5358671673453327 0.3216333527679892 0.2519783857508381 17.761452272036312" Properties=species:S:1:pos:R:3:forces:R:3:momenta:R:3 pbc="T T T"
H        1.94206657       2.71865008       3.17520955       0.37837439      -0.10589937      -0.18057597      -0.14514431      -0.00167893       0.18021997
H        2.17921604       2.97078700       5.46402554      -0.22873113       1.74375054       0.48685026      -0.02363330       0.02750569       0.06312062
H        2.37888161       1.30169013       5.83774034      -0.02973117       0.22368428      -0.32968573      -0.07305158       0.14810004       0.13824067
H        2.45493725      30.80493572       3.21928209       0.05194405       1.02682195      -0.54235993      -0.10028708       0.02463971       0.19773008
H        2.16396745       0.56865041       2.16286572      -0.23784496       0.14613487       0.86147076      -0.02546573       0.07110199      -0.15286963
H        6.51860676       2.99461427      15.84406986      -0.01802484       0.84781675       0.72334883      -0.16186228      -0.06568984       0.14981319
H        6.28463324       1.89051130       0.38750950      -0.14006212      -0.02592736      -0.36855644       0.18068178      -0.06966041       0.19993492
H        6.18206660       3.45231822       1.07888734       0.00497707       0.40959005       0.22126376       0.05639259      -0.00273199       0.05053307
H        6.56100688       5.77726659      17.23144648       0.01388496       0.31911426       0.33485574       0.02465854      -0.06752180      -0.14456524
H        6.52962489       5.36260876      15.53502138      -0.17287021       0.34474506      -0.98848664       0.05273349       0.06955110       0.16666749
C        2.13652144       1.83008330       3.81776792      -0.28590545      -1.57553308      -1.07309758       0.16017286       0.44621368       0.41557833
C        6.52846764       3.70859349      16.73677549       0.20033488       0.04360739       0.19495392      -0.01895761       0.52423788       0.60335212
N        2.25102087       2.04620390       5.12428031       0.16219523      -1.53204148       0.81189478       0.31666102       0.14150805      -0.70472798
N        2.09882742       0.60146633       3.21560390       0.23758927       0.09781966      -0.19721715      -0.72492764       0.39335270       1.34524944
N        6.20828901       2.90333813       0.21169455      -0.03154828      -0.08687493      -0.67417169       0.95924607       0.00646668       0.08371502
N        6.57492412       5.06177088      16.49531414       0.09351341      -1.83336920       0.48832657       0.24147296      -0.77532421       0.23278600
Pb       5.34520534      30.03395301      16.33613871      -0.14578453       0.04704881      -0.01376258      -0.84543321       0.60263219       1.57057662
Pb       1.37383490      30.09980477      16.39114188      -0.41224419      -0.38280324       0.40105387      -2.42629687       0.89052320       1.50856994
I        7.03263256      30.68252109       0.96242392      -0.02825033       0.00456351      -0.02130193       0.55940894      -0.40411495      -0.15573443
I        1.65696757       5.04458860       1.16619774       0.14728148       0.02315064       0.19092730      -0.15111283      -1.41811315      -0.31592537
I        6.86559207       0.16152416       5.76883863       0.14648252       0.17386000       0.15938886       0.26215851      -0.71582940       0.62885486
I        1.65181108       5.60217483       5.79734550       0.03564874       0.13760467      -0.29014622       0.65249871      -0.85401908       0.34340291
I        5.71202284       4.09115206       3.77655426       0.14967029       0.37347904      -0.05608776       1.04282371      -0.56855519      -1.73042117
I        2.96969712       1.48066670      17.45476599       0.04241851       0.05091958      -0.06597284      -1.69819731       0.78105457      -2.10191630
H        2.05667043      10.53356986      17.44170885      -0.03661028       0.01531377      -0.18880014       0.15155256       0.06604369      -0.08921851
H        1.00807053       8.28878884       0.51595310       0.10586152       0.00582868       0.05915063       0.02630596       0.09482171       0.04495567
H        1.39334372       7.71410374      16.72266873       0.00720373      -0.28052572      -0.22709026       0.06728435       0.30210998      -0.07815855
H        2.03228642       9.37147090      14.64003225       0.13460613       0.80228346       1.14173373       0.13015891       0.19115405      -0.06035201
H        2.52840217      11.00061491      15.18808057      -0.21550231      -0.69086082       0.37312125      -0.08080250       0.01696980      -0.20060456
H        6.54354358      10.46815045       4.27471760      -0.02130548      -0.31336723      -0.08129609       0.16217600       0.13209747      -0.01360974
H        6.98832196      12.65101575       4.89012045      -0.00294252       0.12503141       0.59132787      -0.03689840      -0.05587383       0.04489142
H        6.70239925      13.31688789       3.29144452       0.02300262      -0.41384062       0.07908647      -0.04092679      -0.12832694       0.15369301
H        6.12492138      11.74553214       1.53660898       0.14670624       0.38013679      -0.33744858       0.20944302       0.02329997       0.03532082
H       14.86551563      12.09267458       4.78035801      -0.01023998       0.32858601      -0.50023625       0.04351887       0.06175265      -0.06889125
C        1.89834678       9.71809983      16.71368146       0.38202087       1.31649589       0.68041087      -0.51888596       0.31105673      -0.37932767
C        6.51335060      11.25844656       3.52152212       0.03467830       0.96371777      -1.09522773      -0.77694361      -0.53639393      -0.16504875
N        1.50881787       8.57713715      17.25629842      -0.29063369      -0.68602897      -0.18137595      -0.27948078      -0.00937033       0.09771118
N        2.18639227      10.02790296      15.46070655      -0.00583092      -0.51347118      -1.77454718      -1.14030292       0.20626829       0.00939961
N        6.75687006      12.48681629       3.91343042       0.05560873       0.33067587      -0.06574964      -0.90727780       0.24273204       0.09345959
N        6.23274933      11.01164410       2.24474923      -0.23645814      -0.28310970       0.97600452       0.58212746       0.34953094      -0.46165235
Pb       3.68388568       6.61421616       3.33193734       0.12159800      -0.10925409       0.00036942      -0.66449649      -0.32310956       0.33052114
Pb      31.78183870       6.00913961       2.66140571       0.35352710      -0.03159452       0.15037253       1.77002295      -1.72707398      -0.13900543
I        5.66915562       7.97511119       5.47131964      -0.04197236       0.17873431       0.03369315       2.98814288       0.23159947      -0.87251725
I        2.81117771      13.39047804       5.37259465       0.17081484      -0.00713553       0.01462476       1.64211826       1.04084313      -0.94968834
I        5.84262545       7.65215574       1.03819522      -0.14483239      -0.03247532       0.08096171      -0.32728631       1.09546156      -1.83521661
I        3.02068517      12.58716995       0.77024666       0.04624297       0.06685281       0.21634182       1.11693839       1.66719491       0.22093526
I        7.21713325      12.10273938      16.38044761       0.07282861      -0.33558008      -0.02413671       0.28423948       0.91046752       0.58190396
I        1.61045333       9.27703433       3.02482991       0.00547040      -0.35932248       0.03554072      -1.15065610      -0.82098392       0.59287109
H        9.76880411       2.45288458       2.72417231       0.19321987      -0.63612548       0.14021543       0.12682110       0.05064645       0.08671376
H        9.63658312       3.03250667       4.89532313       0.23614178      -0.72610146      -0.13968786      -0.23482530       0.08808420       0.05560480
H       10.01681247       1.44716219       5.54730690      -0.01326089      -0.16048941      -0.18683227      -0.05096885      -0.09960727      -0.00293163
H       10.34588610      30.73178844       3.19677309       0.25307467       0.15013705      -0.13407563       0.11907262      -0.03922107      -0.20000374
H       10.19954061       0.21675590       2.07892123       0.00547429      -0.03390040      -0.28914924      -0.02300365      -0.06893900       0.04180000
H       14.54564003       5.04890814      17.28112932       0.03063185      -0.23787992      -0.01489469      -0.04570036      -0.25261051      -0.20317355
H       14.20851300       5.08090575      15.00624691       0.25550280      -1.02058440      -0.02906895       0.04921643       0.15298472      -0.00611548
H       14.67869964       3.31794850      14.72924029      -0.05725021       0.87737853       0.93633451      -0.09640383      -0.10984536       0.00725837
H       15.29472115       2.11284624      16.98079157       0.06690846      -0.60706209      -0.16977837       0.01215422      -0.05995050      -0.05261119
H       14.85032593       2.73032092       0.75557108      -0.05074123       0.48302496      -0.57716390      -0.05000588       0.09412373      -0.00748663
C        9.90495241       1.62591359       3.46235583      -0.27727153       1.62362236      -0.07487103      -0.02846877      -0.05471671       0.49499319
C       14.74673564       4.07477175      16.73779847       0.03368000       0.08557988       0.23377996      -0.48159019       0.04170150       0.38287621
N        9.85582373       2.02310949       4.70870051      -0.27112764       1.23702565       0.89490468       0.10701512       0.23984728      -0.30899919
N       10.07122388       0.41191455       3.07095140       0.04578613      -1.30031082      -0.22582187      -0.54943675      -0.85417244      -0.05679249
N       14.56186161       4.13676831      15.39877005      -0.15963913      -0.12803537      -0.23978163      -0.52533023       0.11530380       0.33606376
N       14.84637448       2.74325830      -0.29069317      -0.12395871       0.25155821      -0.28622296       0.54499990      -0.43690880       0.29657207
Pb      13.28064835      29.71696821      16.17938087       0.55448713       0.04257795       0.28544973       0.13961520      -0.86201961      -0.65120744
Pb       9.41530681      30.08543364      16.28870284      -0.11681424       0.05306538       0.11189975       1.70805891      -1.43402976       0.89444425
I       14.89588475      30.20140446       0.98763980       0.16578239       0.08924021      -0.43776118       0.73997302       3.18006201       2.10114877
I        9.44070673       4.99561640       1.30533755       0.05466145      -0.22433687      -0.30163688       0.48470006      -1.70340449       1.86030739
I       15.02378351      -0.08000165       5.86401748      -0.08614241       0.53393602      -0.12423638       0.72357032      -0.60557506       0.47955772
I        9.89895504       5.69290192       5.65031646       0.24188192      -0.11375304      -0.20767149       1.57143196      -1.13368517      -1.51075586
I       13.81899622       3.67109823       2.95639271      -0.09427397      -0.08820565       0.05628270       0.59291009      -0.62959351       0.75689585
I       11.44483654       1.34856056      17.22974464      -0.23421290       0.11412641      -0.10334535      -0.83980432      -0.43188379      -0.16069410
H       10.89582932      10.57619618      17.01170325      -0.06374496      -0.49180261       0.00353394       0.20361392       0.03043668      -0.01297162
H       10.98958190      10.74225245      14.72541576       0.31017198       0.73692628      -0.30323169       0.08419145       0.01160135       0.08275001
H       10.87280327       9.02801806      14.42304788       0.06527742      -0.35544588      -0.56738875      -0.22116007       0.02742428       0.19331126
H       10.66663570       7.54698698      16.50332874      -0.32891265      -0.47823142      -0.51608754      -0.04380795       0.25491473      -0.00920363
H       10.30642550       8.18266031       0.25779220      -0.27038517      -0.15152017       0.72587929       0.02345942      -0.18387582      -0.01052482
H       14.52473312      10.04019484       3.92218940      -0.07472770       0.23854649      -0.57366217      -0.00340168      -0.12211923      -0.18286126
H       14.21396090       9.69965919       1.55487985       0.19489174       0.57601160       0.14899134       0.10327758       0.04228322       0.03579694
H       14.47728880      11.40613438       1.19354058      -0.05292663      -0.00395315       0.14998799       0.01762725       0.05471093       0.01133666
H       14.81129327      12.93846056       3.14364098      -0.06762065      -0.06278928       0.32528566       0.04326635      -0.06208451      -0.00795203
H        5.97805729      10.07505443       1.93957121       0.00710031      -0.71316660      -0.18055326       0.08295289       0.05543471      -0.12141153
C       10.83817452       9.63319330      16.40077118      -0.52323905      -1.25323729       0.14534784       0.08909486       0.05457498       0.12576378
C       14.55407668      10.88631810       3.20134594       0.06152580       1.02038137       0.09343886      -0.10454970       0.27084505       0.74740280
N       11.01110080       9.78667283      15.08716940      -0.36469180      -0.38221525       1.17797589      -0.62317588       0.73400090      -0.28422505
N       10.55088983       8.44907945      16.99900217       1.10331106       2.53330032      -0.54509496      -0.21021947       0.00912406       0.44031163
N       14.40384728      10.66562749       1.90039125      -0.05688515      -0.56853528       0.36830383      -0.49154362      -0.23779575      -0.18685904
N       14.71908589      12.09957402       3.74112431       0.01814659      -1.38117774      -0.16242073       0.69220410      -0.41788989      -0.33416791
Pb      11.89004029       6.28557199       2.82064487      -0.15781292       0.05137083       0.39878344      -1.26204140      -0.05212867      -3.37218933
Pb       7.90007771       6.81455930       3.41443036      -0.45890889      -0.27296896       0.01378135      -1.87588309      -2.88271912       1.65610572
I       13.79700227       7.45044762       5.18576250      -0.04395390       0.14466155       0.09530909       2.44648622       0.12901372      -1.52697325
I       10.90331044      13.42143201       5.24133798      -0.16253766      -0.34466179      -0.18453156       0.41864777       0.10423406       1.37576100
I       13.87675409       7.40539709       0.53818587      -0.12732570      -0.05519830       0.02481989       0.01396313       1.14924698       1.75469458
I       10.96525817      12.57014225       0.78697682      -0.26286180       0.02112614       0.03079282       0.54818411       0.34061402      -0.53199430
I       15.20645272      11.56398060      15.93788816       0.02163267       0.16739778       0.27693543      -1.22683853      -0.18156082      -0.44459701
I       10.09265481       9.12122775       2.83831769      -0.00522239      -0.16765926      -0.09280624      -0.96371595       0.29982306      -0.54325841
H        2.10288325       2.84463927      12.05593569       0.37837439      -0.10589937      -0.18057597      -0.14514431      -0.00167893       0.18021997
H        2.34003272       3.09677619      14.34475168      -0.22873113       1.74375054       0.48685026      -0.02363330       0.02750569       0.06312062
H        2.53969829       1.42767932      14.71846648      -0.02973117       0.22368428      -0.32968573      -0.07305158       0.14810004       0.13824067
H        2.61575393      30.93092492      12.10000823       0.05194405       1.02682195      -0.54235993      -0.10028708       0.02463971       0.19773008
H        2.32478413       0.69463960      11.04359186      -0.23784496       0.14613487       0.86147076      -0.02546573       0.07110199      -0.15286963
H        6.35779009       2.86862507       6.96334373      -0.01802484       0.84781675       0.72334883      -0.16186228      -0.06568984       0.14981319
H        6.44544992       2.01650049       9.26823564      -0.14006212      -0.02592736      -0.36855644       0.18068178      -0.06966041       0.19993492
H        6.34288328       3.57830741       9.95961348       0.00497707       0.40959005       0.22126376       0.05639259      -0.00273199       0.05053307
H        6.40019021       5.65127739       8.35072035       0.01388496       0.31911426       0.33485574       0.02465854      -0.06752180      -0.14456524
H        6.36880822       5.23661956       6.65429525      -0.17287021       0.34474506      -0.98848664       0.05273349       0.06955110       0.16666749
C        2.29733812       1.95607249      12.69849406      -0.28590545      -1.57553308      -1.07309758       0.16017286       0.44621368       0.41557833
C        6.36765097       3.58260429       7.85604936       0.20033488       0.04360739       0.19495392      -0.01895761       0.52423788       0.60335212
N        2.41183755       2.17219309      14.00500645       0.16219523      -1.53204148       0.81189478       0.31666102       0.14150805      -0.70472798
N        2.25964410       0.72745552      12.09633004       0.23758927       0.09781966      -0.19721715      -0.72492764       0.39335270       1.34524944
N        6.36910569       3.02932732       9.09242069      -0.03154828      -0.08687493      -0.67417169       0.95924607       0.00646668       0.08371502
N        6.41410745       4.93578168       7.61458801       0.09351341      -1.83336920       0.48832657       0.24147296      -0.77532421       0.23278600
Pb       5.18438866      29.90796382       7.45541258      -0.14578453       0.04704881      -0.01376258      -0.84543321       0.60263219       1.57057662
Pb       1.21301822      29.97381558       7.51041575      -0.41224419      -0.38280324       0.40105387      -2.42629687       0.89052320       1.50856994
I        7.19344924      30.80851029       9.84315006      -0.02825033       0.00456351      -0.02130193       0.55940894      -0.40411495      -0.15573443
I        1.81778425       5.17057779      10.04692388       0.14728148       0.02315064       0.19092730      -0.15111283      -1.41811315      -0.31592537
I        7.02640875       0.28751335      14.64956477       0.14648252       0.17386000       0.15938886       0.26215851      -0.71582940       0.62885486
I        1.81262776       5.72816402      14.67807164       0.03564874       0.13760467      -0.29014622       0.65249871      -0.85401908       0.34340291
I        5.87283952       4.21714125      12.65728040       0.14967029       0.37347904      -0.05608776       1.04282371      -0.56855519      -1.73042117
I        2.80888045       1.35467750       8.57403986       0.04241851       0.05091958      -0.06597284      -1.69819731       0.78105457      -2.10191630
H        1.89585376      10.40758066       8.56098272      -0.03661028       0.01531377      -0.18880014       0.15155256       0.06604369      -0.08921851
H        1.16888721       8.41477803       9.39667924       0.10586152       0.00582868       0.05915063       0.02630596       0.09482171       0.04495567
H        1.23252705       7.58811454       7.84194260       0.00720373      -0.28052572      -0.22709026       0.06728435       0.30210998      -0.07815855
H        1.87146975       9.24548170       5.75930612       0.13460613       0.80228346       1.14173373       0.13015891       0.19115405      -0.06035201
H        2.36758550      10.87462571       6.30735444      -0.21550231      -0.69086082       0.37312125      -0.08080250       0.01696980      -0.20060456
H        6.70436026      10.59413964      13.15544374      -0.02130548      -0.31336723      -0.08129609       0.16217600       0.13209747      -0.01360974
H        7.14913864      12.77700494      13.77084659      -0.00294252       0.12503141       0.59132787      -0.03689840      -0.05587383       0.04489142
H        6.86321593      13.44287708      12.17217066       0.02300262      -0.41384062       0.07908647      -0.04092679      -0.12832694       0.15369301
H        6.28573806      11.87152133      10.41733512       0.14670624       0.38013679      -0.33744858       0.20944302       0.02329997       0.03532082
H       15.02633231      12.21866377      13.66108415      -0.01023998       0.32858601      -0.50023625       0.04351887       0.06175265      -0.06889125
C        1.73753011       9.59211063       7.83295533       0.38202087       1.31649589       0.68041087      -0.51888596       0.31105673      -0.37932767
C        6.67416728      11.38443575      12.40224826       0.03467830       0.96371777      -1.09522773      -0.77694361      -0.53639393      -0.16504875
N        1.34800120       8.45114795       8.37557229      -0.29063369      -0.68602897      -0.18137595      -0.27948078      -0.00937033       0.09771118
N        2.02557560       9.90191376       6.57998042      -0.00583092      -0.51347118      -1.77454718      -1.14030292       0.20626829       0.00939961
N        6.91768674      12.61280548      12.79415656       0.05560873       0.33067587      -0.06574964      -0.90727780       0.24273204       0.09345959
N        6.39356601      11.13763329      11.12547537      -0.23645814      -0.28310970       0.97600452       0.58212746       0.34953094      -0.46165235
Pb       3.84470236       6.74020535      12.21266348       0.12159800      -0.10925409       0.00036942      -0.66449649      -0.32310956       0.33052114
Pb      31.94265538       6.13512880      11.54213185       0.35352710      -0.03159452       0.15037253       1.77002295      -1.72707398      -0.13900543
I        5.82997230       8.10110038      14.35204578      -0.04197236       0.17873431       0.03369315       2.98814288       0.23159947      -0.87251725
I        2.97199439      13.51646723      14.25332079       0.17081484      -0.00713553       0.01462476       1.64211826       1.04084313      -0.94968834
I        6.00344213       7.77814493       9.91892136      -0.14483239      -0.03247532       0.08096171      -0.32728631       1.09546156      -1.83521661
I        3.18150185      12.71315914       9.65097280       0.04624297       0.06685281       0.21634182       1.11693839       1.66719491       0.22093526
I        7.05631658      11.97675018       7.49972148       0.07282861      -0.33558008      -0.02413671       0.28423948       0.91046752       0.58190396
I        1.77127001       9.40302352      11.90555605       0.00547040      -0.35932248       0.03554072      -1.15065610      -0.82098392       0.59287109
H        9.92962079       2.57887377      11.60489845       0.19321987      -0.63612548       0.14021543       0.12682110       0.05064645       0.08671376
H        9.79739980       3.15849586      13.77604927       0.23614178      -0.72610146      -0.13968786      -0.23482530       0.08808420       0.05560480
H       10.17762915       1.57315138      14.42803304      -0.01326089      -0.16048941      -0.18683227      -0.05096885      -0.09960727      -0.00293163
H       10.50670278      30.85777764      12.07749923       0.25307467       0.15013705      -0.13407563       0.11907262      -0.03922107      -0.20000374
H       10.36035729       0.34274509      10.95964737       0.00547429      -0.03390040      -0.28914924      -0.02300365      -0.06893900       0.04180000
H       14.38482336       4.92291894       8.40040319       0.03063185      -0.23787992      -0.01489469      -0.04570036      -0.25261051      -0.20317355
H       14.04769633       4.95491655       6.12552078       0.25550280      -1.02058440      -0.02906895       0.04921643       0.15298472      -0.00611548
H       14.51788297       3.19195930       5.84851416      -0.05725021       0.87737853       0.93633451      -0.09640383      -0.10984536       0.00725837
H       15.13390448       1.98685704       8.10006544       0.06690846      -0.60706209      -0.16977837       0.01215422      -0.05995050      -0.05261119
H       15.01114261       2.85631011       9.63629722      -0.05074123       0.48302496      -0.57716390      -0.05000588       0.09412373      -0.00748663
C       10.06576909       1.75190278      12.34308197      -0.27727153       1.62362236      -0.07487103      -0.02846877      -0.05471671       0.49499319
C       14.58591897       3.94878255       7.85707234       0.03368000       0.08557988       0.23377996      -0.48159019       0.04170150       0.38287621
N       10.01664041       2.14909868      13.58942665      -0.27112764       1.23702565       0.89490468       0.10701512       0.23984728      -0.30899919
N       10.23204056       0.53790374      11.95167754       0.04578613      -1.30031082      -0.22582187      -0.54943675      -0.85417244      -0.05679249
N       14.40104494       4.01077911       6.51804392      -0.15963913      -0.12803537      -0.23978163      -0.52533023       0.11530380       0.33606376
N       15.00719116       2.86924749       8.59003297      -0.12395871       0.25155821      -0.28622296       0.54499990      -0.43690880       0.29657207
Pb      13.11983167      29.59097902       7.29865474       0.55448713       0.04257795       0.28544973       0.13961520      -0.86201961      -0.65120744
Pb       9.25449013      29.95944445       7.40797671      -0.11681424       0.05306538       0.11189975       1.70805891      -1.43402976       0.89444425
I       15.05670143      30.32739366       9.86836594       0.16578239       0.08924021      -0.43776118       0.73997302       3.18006201       2.10114877
I        9.60152341       5.12160559      10.18606369       0.05466145      -0.22433687      -0.30163688       0.48470006      -1.70340449       1.86030739
I       15.18460019       0.04598754      14.74474362      -0.08614241       0.53393602      -0.12423638       0.72357032      -0.60557506       0.47955772
I       10.05977172       5.81889111      14.53104260       0.24188192      -0.11375304      -0.20767149       1.57143196      -1.13368517      -1.51075586
I       13.97981290       3.79708742      11.83711885      -0.09427397      -0.08820565       0.05628270       0.59291009      -0.62959351       0.75689585
I       11.28401987       1.22257136       8.34901851      -0.23421290       0.11412641      -0.10334535      -0.83980432      -0.43188379      -0.16069410
H       10.73501265      10.45020698       8.13097712      -0.06374496      -0.49180261       0.00353394       0.20361392       0.03043668      -0.01297162
H       10.82876523      10.61626325       5.84468963       0.31017198       0.73692628      -0.30323169       0.08419145       0.01160135       0.08275001
H       10.71198660       8.90202886       5.54232175       0.06527742      -0.35544588      -0.56738875      -0.22116007       0.02742428       0.19331126
H       10.50581903       7.42099778       7.62260261      -0.32891265      -0.47823142      -0.51608754      -0.04380795       0.25491473      -0.00920363
H       10.46724218       8.30864950       9.13851834      -0.27038517      -0.15152017       0.72587929       0.02345942      -0.18387582      -0.01052482
H       14.68554980      10.16618403      12.80291554      -0.07472770       0.23854649      -0.57366217      -0.00340168      -0.12211923      -0.18286126
H       14.37477758       9.82564838      10.43560599       0.19489174       0.57601160       0.14899134       0.10327758       0.04228322       0.03579694
H       14.63810548      11.53212357      10.07426672      -0.05292663      -0.00395315       0.14998799       0.01762725       0.05471093       0.01133666
H       14.97210995      13.06444975      12.02436712      -0.06762065      -0.06278928       0.32528566       0.04326635      -0.06208451      -0.00795203
H        6.13887397      10.20104362      10.82029735       0.00710031      -0.71316660      -0.18055326       0.08295289       0.05543471      -0.12141153
C       10.67735785       9.50720410       7.52004505      -0.52323905      -1.25323729       0.14534784       0.08909486       0.05457498       0.12576378
C       14.71489336      11.01230729      12.08207208       0.06152580       1.02038137       0.09343886      -0.10454970       0.27084505       0.74740280
N       10.85028413       9.66068363       6.20644327      -0.36469180      -0.38221525       1.17797589      -0.62317588       0.73400090      -0.28422505
N       10.39007316       8.32309025       8.11827604       1.10331106       2.53330032      -0.54509496      -0.21021947       0.00912406       0.44031163
N       14.56466396      10.79161668      10.78111739      -0.05688515      -0.56853528       0.36830383      -0.49154362      -0.23779575      -0.18685904
N       14.87990257      12.22556321      12.62185045       0.01814659      -1.38117774      -0.16242073       0.69220410      -0.41788989      -0.33416791
Pb      12.05085697       6.41156118      11.70137101      -0.15781292       0.05137083       0.39878344      -1.26204140      -0.05212867      -3.37218933
Pb       8.06089439       6.94054849      12.29515650      -0.45890889      -0.27296896       0.01378135      -1.87588309      -2.88271912       1.65610572
I       13.95781895       7.57643681      14.06648864      -0.04395390       0.14466155       0.09530909       2.44648622       0.12901372      -1.52697325
I       11.06412712      13.54742120      14.12206412      -0.16253766      -0.34466179      -0.18453156       0.41864777       0.10423406       1.37576100
I       14.03757077       7.53138628       9.41891201      -0.12732570      -0.05519830       0.02481989       0.01396313       1.14924698       1.75469458
I       11.12607485      12.69613144       9.66770296      -0.26286180       0.02112614       0.03079282       0.54818411       0.34061402      -0.53199430