768
Lattice="25.888783465013457 -0.26065579461610544 0.6964381020346223 0.2808865365786464 25.92206712803773 0.0706842229014887 -0.6430174188924329 -0.04221809821815645 25.838360985299012" Properties=species:S:1:pos:R:3:forces:R:3:momenta:R:3 energy=-3629.017960572221 stress="0.0 0.0 0.0 0.0 0.0 0.0 0.0 0.0 0.0" pbc="T T T"
H        9.64895596      13.33535841       2.71690388       0.12144897       0.33196451      -0.04207945      -0.20107807       0.32303479       0.14767494
H        8.92194738       4.12859352       2.90917609       0.37129636       0.42542164       0.01181764      -0.08243321       0.07175481       0.14983168
H        7.82351883       4.32394682       8.28530787       0.21438918       0.37423095       0.33984597      -0.05836408      -0.05841843       0.03575496
H        8.17625207      13.18031452       7.85136130      -0.32199245      -0.01812275      -0.20892362      -0.01861165      -0.16698045      -0.09064230
H        8.00233349      13.08668416       1.25714064      -0.30806382      -0.19657350      -0.03321788       0.09404502       0.24211104      -0.02554582
H        7.12034452       4.55082301       1.46105028       0.18094299       0.01447024       0.27257098       0.14081522       0.22866334       0.03462828
H        1.22874662      12.61186228      10.61479743      -0.08369204       0.14768705       0.25185887      -0.12522508       0.06243727      -0.23278494
H        9.70005798      12.92058008       9.46090399       0.79415520       0.54792434       0.77334785       0.03830917       0.01903009       0.14614955
H        3.34683807       4.92935308       1.93309136       0.13522949      -0.09807471      -0.29255865       0.10626835      -0.07340863      -0.23867081
H        0.70788041      11.05830658       3.20005216       0.28025262       0.08210875       0.04209448       0.32019952      -0.05690673       0.03873911
H        0.99925352      11.05200691       9.71431226      -0.59259963      -0.51838105       0.26640224      -0.08500484      -0.08213249      -0.04818284
H        8.59122837      11.64038901      10.36876022       0.34992704      -0.35849524       0.91695907      -0.27484888       0.02656261       0.13534567
H        2.41313218       4.22068332       4.49412977      -0.37665232       0.81016786      -0.36574871      -0.06329776       0.10606316       0.04853259
H        2.77995674      11.14184571       1.60776397       0.16168818       0.83049981       0.54985362       0.28921458       0.15856630       0.21723239
H        2.15784654      10.97037331       7.33110894       0.29845970      -0.23349951      -0.34161466      -0.04233559       0.02750306       0.02846076
H        1.46777986       6.68185912       7.74978221      -0.48629716       1.05625564      -0.00990128      -0.09897693       0.18858267      -0.09232208
H        9.86772636      11.96523188       4.63967057       0.14378820       0.67040261      -0.04146595       0.03956103      -0.00406771       0.07041737
H        3.64757638      12.65654940       1.67432189       1.47781680       1.22005320      -0.50185812       0.17831689       0.01745947       0.07265318
H        9.44768327       4.52766769      10.10194334      -0.48317910       0.44321369      -0.16347660       0.09309472      -0.00175914      -0.08161228
H        2.90697301       5.79139643       7.18573407      -0.46691940       0.43486976       0.43172548      -0.13150152      -0.15819083      -0.16329388
C        8.87691006      12.54425888       2.90953381       1.75839193       0.69887508       1.10330480      -0.28112266       0.42724355       0.20669375
C        2.06946411      12.64036765       2.91866617       0.18102171       0.09246948       0.31818388      -0.52332378      -0.05192167       0.02677699
C        2.23646227      12.51676430       8.76235216      -1.02634595       0.14923701       0.10276827      -0.10848319       0.62666709      -0.03491899
C        2.12721487       5.03803981       8.92324564      -1.56749969      -0.36410014       0.90872364      -0.69010374       0.68452234      -0.19481545
N        2.51401837       5.60168401       1.86713654       1.11189279       0.01618015      -0.82286943       0.07685336      -0.57143307       0.11864038
N        1.07655156      11.99515745       3.48331575      -1.64793010      -0.46153191       0.67431343      -0.37843106       0.46126423      -0.26592551
N        1.43556166      12.00186659       9.80290244       1.91779272       0.07011397      -1.96171134       0.02355135      -0.26299006      -0.84103956
N        8.74327300      12.38268702       9.69449760      -1.56451864      -0.37353274      -1.51367449       1.32583259       1.05114895      -0.46150975
N        1.75870211       5.01522588       4.18123584      -0.62284237       1.45866075       0.16777534      -0.56635250       0.13446849       0.27124780
N        2.91523855      12.10754258       2.03289994      -1.79319648      -1.96957430      -0.22485591      -0.33905230       0.25354889       0.24600664
N        8.76695530       5.34184279       9.96008731       0.90435829      -1.23655094       0.22698868       0.16318034       0.70659949      -0.05042653
N        2.13860347       5.91929107       7.90050415       1.66967485      -1.65075660      -0.59001950       0.05473616      -0.51540928       0.38335527
Pb       4.96307257       2.38323460      12.14380658      -0.08721813      -0.25410839      -0.04457448       0.88379407      -1.03413902       3.11178971
Pb      24.19559025       2.46336414      13.03700929       0.05137222      -0.50128630       0.21670835      -1.26140965       2.50198697      -4.64334058
Pb       5.49997715       8.86752858       5.94163500      -0.45880415      -0.06277006      -0.21664308      -0.29278511       3.97934926      -0.88669587
Pb       4.95078389       2.26559034       5.72281594       0.34708830       0.14490789       0.08507764       0.36393378       1.68267678       0.25586639
I        8.06702139       2.30710584      12.79420221      -0.02406873       0.16519004      -0.02956624      -0.12542940      -2.31139446      -0.91024017
I        1.68276823      15.33141009      11.72468085      -0.15964036       0.05808594       0.09902896      -2.42346223      -2.00869230       2.43836835
I        1.76468697       1.89889905       5.82897861      -0.29487566       0.16925303       0.09585189      -1.70326505      -3.63284324       1.03523416
I        8.18123707       2.35298769       5.92194307       0.02282872      -0.05951919       0.06745141      -2.18555009       0.97036345      -1.75920292
I        5.15992098      11.94031194      12.44714717      -0.10379481       0.15012778      -0.06336210      -2.11925973      -0.19328919      -1.97745664
I        4.99421419       5.83555072      25.15281957      -0.14158806      -0.57723202       0.01160431       1.22064349      -0.53314639      -0.11512306
I        5.09406897       5.58950819       5.54308616      -0.07548632       0.09572070       0.04928860      -3.17847495      -0.33963601       0.60976874
I        5.17199434      12.11574710       5.30641143       0.07849249      -0.04220271      -0.05208759      -0.25066170       0.41493358      -2.71976300
I        4.49184735      15.57044573       2.43106865       0.01362870      -0.00570162      -0.01875101      -1.54464115       2.78313694      -1.40700504
I       24.54352271       2.21917385       3.45538801      -0.07080972      -0.01921110       0.21022367       2.43455797      -1.66450715      -2.59823499
I       23.83053862       2.64706822       9.90975703       0.07235534       0.03898375      -0.13675861       0.86913242       0.46928157      -0.21804486
I        4.75259337       2.55596098       8.90742480       0.12485187      -0.05469900       0.13404362       2.59138880      -1.40519699      -2.15979782
H        0.87522658       6.52300984       2.67393980       0.45710165      -1.12254129       0.93517079      -0.01808559      -0.02814306      -0.03190161
H        2.18235289      13.68370639       3.29652224       0.51374149       0.14465226      -0.19870527       0.25179691      -0.15942357      -0.19635118
H        2.61874339      13.58932807       8.85730261       0.15505333      -0.02164455       0.24779514       0.11706772      -0.03330945      -0.03180693
H        2.89182444       4.18405471       8.93721685      -0.29298520       0.71178246      -0.00198438      -0.12275419       0.23583547       0.08014474
H        2.28960345       6.27206503       0.96407642       0.18575372      -0.53606021       0.46935788      -0.03593830      -0.03790823       0.05172255
H        0.48618693      12.47173215       4.22742299       0.49706763      -0.17381206      -0.77488884       0.01142255      -0.07605544       0.20931812
H        6.34938664       6.09245029       7.80922144       0.13344715       0.22673711       0.61431937       0.10042908      -0.07827134      -0.20316242
H        1.12477317       4.42746298      10.66714377       0.19216139      -0.00122044      -0.17897025      -0.21481732       0.13466092      -0.21753241
H        7.08330454      11.78524073       2.15343987      -0.35235975      -0.99154037      -0.15948799       0.20097243       0.16606635      -0.10999544
H        6.92778292       6.16150523       2.10238853      -0.22161775       0.81347512      -0.09659654      -0.07792992      -0.10524093      -0.21124624
H        6.71753263       7.02695587       9.32163879       0.16119586       0.13593277      -0.13229908      -0.02623493       0.07120477      -0.19368995
H        0.58419098       5.97018469       9.90089979       0.14740704      -1.00338016       0.22030750       0.03392911      -0.00746920      -0.24782098
H        8.46199637      10.99063873       4.26979700       0.55947433       1.39462917      -0.35589612       0.25786509       0.17961039       0.07526088
H        8.64643170       6.99967457       4.04477587      -0.22239678       0.35357420      -0.70624493      -0.16308799      -0.20552542      -0.06214511
H        8.85430086       6.17199857      10.57485638      -0.14143963       0.55574677       0.32326031       0.22992309      -0.06649963       0.03158462
H        5.95449788      11.22433329       9.62892077       0.76400147       1.39803017      -0.86774923       0.05552980       0.24102914      -0.11980620
H        1.05167845       5.36623421       4.92369419       1.14994588      -0.94273681      -0.80197151       0.25740267       0.01344565      -0.04647098
H        9.96152314       5.95704646       4.30124880       0.20178850      -0.53783845       0.35723681      -0.00406799      -0.03832073       0.07900407
H        3.12327517      12.43001627       6.77417253       0.23403505      -0.13009155      -0.09089182       0.20962857      -0.35145900       0.10339213
H        6.03244919      11.98760379       7.84964716      -0.06926549      -0.16910463       0.36592994       0.04043918      -0.01689086       0.07896349
C        1.72640808       5.73288354       2.95210497      -2.05568056       0.51712906       0.52162604       0.69239335      -0.40053247      -0.00801405
C        8.53709291       5.18285329       2.91197368       0.01723640       0.05865823       0.32268974       1.23294013      -0.90687341      -0.35336030
C        7.85379149       5.25075401       8.98057112      -0.39993979      -0.00410780      -0.81272333      -0.56177429      -0.18160203      -0.24825499
C        7.80614854      12.50559197       8.75074925      -0.70842293      -1.40263607      -0.30974023      -0.14928836       0.61019478       0.39708505
N        7.95595827      12.39653183       2.03091740      -0.84660498       0.97203050      -1.32337076       0.73686369      -0.28592305       0.80001626
N        7.50933693       5.34331030       2.07809095      -0.06977983      -0.53691330       0.21546965      -0.45450528      -0.11504426      -0.25417078
N        6.94013259       6.21532596       8.69098304      -0.48548026      -0.58463835      -0.51810905      -0.12661065       0.70455229       0.24115038
N        1.13424578       5.07886271       9.85807033       0.85981738       1.05086924      -0.91787962       0.64558935      -0.37062067       0.16720249
N        9.05371291      11.85370369       4.01037017      -1.21072065      -2.98656202       0.86198501      -0.67918656      -0.11741778       0.03136269
N        9.11305623       6.14382016       3.74004348      -0.33921816      -0.61550808      -0.27935375      -1.18687506      -0.73309733       0.00745348
N        2.54580018      11.91610876       7.54617283      -1.14855674       0.45027615       1.65780303       0.47441731       0.01384814       0.32094424
N        6.51254141      11.85457511       8.77123884       0.81095896       0.34684244       0.97298486       0.33875150      -0.80068915       0.19628599
Pb      24.80877540       8.75505411      13.23470377      -0.06788723       0.33521794      -0.01983721       0.71799487       1.07773541      -0.50087372
Pb       5.51221697       8.69436455      12.43419995      -0.16718801      -0.01937734      -0.15353649      -4.35657467       1.44447867      -2.26712285
Pb      24.27803813       2.40893345       6.70407612       0.41258928       0.01028001      -0.11422817       1.24967028      -0.69000208       4.06396968
Pb      24.70362636       8.90235604       6.87892937       0.03429030       0.14363942      -0.31625569       2.30077367       0.79211651       0.16614469
I        1.85415588       8.41776042      12.76970382       0.13159027      -0.05647562       0.09535858      -1.02706533      -1.13816613      -0.47257678
I        8.27046202       9.00088600      11.35104009       0.06683288      -0.01736275       0.05124709      -0.30895856      -0.00023704       2.11262072
I        8.43083725       8.77593844       6.58702605      -0.15918513       0.15196035      -0.07142385       0.67082020      -1.04200028      -1.43756000
I        1.78247826       8.95850219       5.56244893       0.43901450      -0.08054266       0.02728785       1.35339549       0.44570173      -0.37272817
I       24.31041179       5.47102607      12.97499377      -0.09014701      -0.18900361       0.20543776      -0.22858048       0.99710202      -2.55234340
I       23.90548985      12.04116954      26.14941538       0.04302191       0.24990401       0.13902916      -0.18768844       0.22834489       0.96033423
I       24.20203327      12.05964752       6.74172445       0.20487212       0.24530745       0.06455485       0.12859146       0.55025904       1.14034019
I       24.58405237       5.62984913       6.65179780       0.03839364      -0.32040621       0.25945144      -0.81013930      -2.29869630       1.22268873
I       11.11947115       8.57875429       2.92578393       0.16446655       0.11797906       0.26535664       0.60869297      -1.98758211      -1.80587120
I        6.30119565       8.99033974       2.76596566      -0.11379843      -0.01911504      -0.10262170       1.22306477      -0.51853759       2.65177025
I        4.25259148       8.82871638       9.10087191       0.26211346       0.05877694       0.19759592      -0.05563524       1.38666285       2.95608540
I       25.40131474       8.39793750      10.03628616       0.07635743       0.08732644      -0.21596075       0.88869195       0.28916098      -1.25653851
H        8.80577630      13.31400781      16.03844666       0.05278248      -0.73815365       0.14536830       0.06486380       0.12659803      -0.28628750
H        9.33000582       4.46852403      16.56531543      -0.92843373       1.57426401      -0.27304732       0.00853968       0.16962762       0.04183098
H        7.57604480       4.15708284      22.38567623      -0.05678758      -1.21110339      -0.73159028       0.17965449       0.23965078      -0.04133018
H        8.22982338      13.35066818      21.19028768       0.17591792       0.55441152       0.17332273       0.23813643      -0.01973520      -0.04025869
H        7.77583012      12.75570421      14.07910136      -0.12353283      -0.23122053       0.14118653      -0.21269768      -0.23253022      -0.13085256
H        7.79752383       4.49617666      14.59121730      -0.28751402      -1.37412250      -1.32460112      -0.08162660      -0.01014387      -0.25157966
H       -0.28647760      12.75304515      23.12443933       0.36090434       0.24342086      -0.04766747       0.00162516       0.01438937      -0.14049172
H        9.71096545      12.89172723      22.90334907       0.01253765      -0.01146316       0.20233376       0.08118722      -0.08037642       0.25478382
H        3.07354793       4.06704060      15.40256362       0.16717256       0.19746885      -0.53461106       0.14239685       0.33245697      -0.41362315
H       -0.15514241      10.92694128      16.60190370       0.19981586       0.75251730       0.10602211      -0.08655392      -0.07489400       0.00682640
H        0.12237871      10.94410647      22.14588889       0.25420734       0.80316591       0.30858650       0.09858524      -0.09532196      -0.16449997
H        8.83078144      11.39659589      23.40127883       0.07555282       0.48944041      -0.20781802       0.16555469       0.01089691      -0.19969718
H        1.32738303       4.52900691      17.27354986       0.23943614      -0.12291789       0.72272878      -0.06911564       0.10331600       0.07721385
H        1.69858598      10.20696031      14.34757569       0.09092238       1.29296089       1.49570274       0.10238224       0.15957000       0.17809087
H        1.81739031      10.77149617      20.71610853      -0.35298190      -0.94609692      -0.64797398      -0.12194033       0.21241825      -0.17733953
H        2.10302921       6.71233279      20.41316003      -0.47914976       0.63758942      -0.16874946       0.08776765      -0.22329540      -0.11652610
H        9.19356319      11.69712613      17.79861602      -0.50009860       0.11249086      -0.56000410      -0.02471164      -0.10498572       0.18532209
H        3.08696882      11.53181263      14.03087333      -0.58959372      -0.46892366       0.06863081       0.29596681       0.01910806      -0.04807827
H        8.33942837       5.12895123      24.35440051      -0.00092787       0.15268435      -0.19766996       0.10450219      -0.10068222       0.17060456
H        2.76900798       5.04440836      20.07844874       0.40133866       0.03438523      -0.01071584       0.09128673       0.31450199       0.01184383
C        8.42420310      12.23305748      15.93000619       0.42143896       0.44163244       0.57210596       0.29607311      -0.19607246      -0.03326749
C        1.53789422      12.31263661      15.58214702      -1.41337271      -2.19715090      -0.65769471       0.10254096      -0.36319540      -0.72834851
C        1.32953752      12.70393111      21.51781866       0.96145854       2.46514026       1.27844061      -0.26116525       0.54194864       0.54665547
C        1.72934503       5.24060143      21.89260619      -0.47173478       0.22479927       1.61881154       0.26890314      -0.53570292       0.81238923
N        2.64675340       4.96333477      14.90454251      -0.33858603       1.46074725      -0.69517091       0.22264430      -0.13236384       1.15132711
N        0.33156220      12.06944265      16.45094303       0.83860134       0.36390674      -0.05653474       0.33948602      -0.74471861       0.54381955
N        0.34035787      12.14239335      22.35358684      -0.34863046      -0.92026252      -0.58945486       0.65165303      -0.06343929       1.18866526
N        8.91794794      12.24043796      22.80595602       0.45669725      -0.34611682       0.75916330       1.39037784       0.71980008      -0.14264272
N        1.29370881       5.59162894      16.99795760       1.43180123      -0.27284781      -2.26260350      -0.46422020       0.76423417      -0.70489514
N        2.17862762      11.21670739      14.69672586       0.23240401      -0.04866015      -0.89322072      -1.06143912      -0.23497495      -0.72580409
N        7.71534306       5.71536669      23.65311734       0.75051568      -0.48152232       1.27916738       0.39093578      -0.17834936       0.08943248
N        2.24877799       5.71767398      20.78975405       0.51281867       1.37363305      -2.34157117      -0.17971653      -0.05171614       0.21965205
Pb       4.48689015       2.32753631      25.21253045       0.02912029       0.18629245      -0.40961495       3.61053350      -1.54492820       1.72894479
Pb      23.70124597       2.20113812      26.16080883       0.26885714       0.40484600      -0.11241719       2.32641546      -1.29559617      -3.15483712
Pb       4.94319302       8.60940573      18.94454463      -0.01531535       0.50080990      -0.08764663       2.77761765      -1.55083876      -1.55535730
Pb       4.24431299       2.36151610      18.58942748       0.31817006      -0.31793415       0.42639706       5.71366614       1.12052195       0.90958359
I        7.63785698       2.01502364      26.00596050       0.07425388       0.17374056      -0.05461140      -1.59144849      -2.83365942      -1.39476761
I        1.12135018      15.40395787      24.44808488       0.08408033      -0.04439261       0.10647371       1.39552023       2.21691502      -0.25259372
I        1.28469071       2.64524334      19.54830485       0.10646350      -0.01044323      -0.33674705       0.05926766       0.17551495       1.01521617
I        7.74361973       2.07337938      19.28226944       0.25097511       0.12314000      -0.25662947       4.02866324      -3.00060703      -2.19524476
I        4.46114853      12.25711410      25.17771670       0.08526003      -0.15002063      -0.02391916       1.52287105       1.19356329      -0.50978538
I        4.87329885       5.47874503      12.37154159       0.18803805       0.37227988      -0.11633773       3.07417901      -1.28716833      -1.58929300
I        4.91271528       5.59383339      18.19130778      -0.05248643      -0.12224841       0.03233269      -1.44851274       1.30958853       3.40544746
I        5.04479700      12.10837105      18.47927203      -0.06050577      -0.50986943      -0.03087391      -0.08859218       0.81507828       2.36688687
I        4.27828825      15.10802208      15.22414170      -0.16601929       0.00501364       0.35920900       1.95132157       0.48313194       3.54026291
I       24.49129650       2.22772437      16.44276391      -0.08947882      -0.05015313      -0.28928646       2.13457818      -1.23215369      -2.19917700
I       23.60146110       2.58701518      22.85896300       0.01409672      -0.06247911       0.11084052       0.97664867      -0.88621348       3.27684316
I        4.96869632       2.23878817      21.94937410      -0.16492907       0.17203346       0.12816514      -2.77339175       2.97175522      -0.18564300
H        1.44982416       6.72911471      15.09419042      -0.73204738       1.93811506      -0.16824560       0.15712497      -0.14475607       0.03926556
H        1.99174200      13.48021183      15.56046189       0.43522894       0.57068032       0.49577492       0.12134620       0.26162540       0.03066126
H        1.63151761      13.91562241      21.57195276      -1.38192368      -1.78064517       0.15582276       0.05039343      -0.04218034       0.01841685
H        2.10086868       4.27817146      22.15675315       0.38011464      -1.81444076       0.30986638      -0.11968446      -0.31280938      -0.03050423
H        2.98756388       5.37472508      13.94709775       0.24456819      -1.48867727       0.70282918       0.44707210      -0.16845512       0.08885916
H       -0.03071723      12.89820070      17.20100128       0.30627273      -0.16421136      -0.56704961       0.02466984       0.03601167       0.39721859
H        6.13367242       5.23463300      20.75275052      -0.37817991      -0.05706680      -0.29271268      -0.02474053       0.02450316      -0.09969900
H        0.74444594       5.29627685      23.59873079      -0.55030897       0.39844936       0.43615752       0.19918380       0.02617996       0.08227280
H        7.29371283      11.09745794      14.53796609       0.01931734      -0.00900908       0.01312769      -0.09437824       0.22757671       0.26543332
H        6.80956293       5.89302582      15.21022792      -0.51873643       0.98133146      -0.19380090       0.02582508       0.02105057       0.06764583
H        5.79348081       6.73896408      21.76020100       0.37838171      -0.15522752       0.07710738      -0.31403686       0.11127179       0.05560635
H        0.51466794       6.87947661      22.67634464       0.76946212      -1.29284230       0.07360171      -0.19833914       0.08051940       0.11997470
H        8.16566494      10.52316310      17.00487784      -0.42030338      -1.06012061      -0.01077924       0.13312935       0.07097533       0.09609744
H        7.60362257       7.01137073      17.58698549       0.67121872      -0.94456091      -0.74012701       0.06142508       0.16718798      -0.09935002
H        7.44520084       6.67887884      23.91384116       0.07011378       1.37139588       1.02116421      -0.17603492       0.20423672       0.13509764
H        6.75164607      10.89744379      22.03957762       0.26566608       0.31067802      -0.08067645       0.20859369       0.08999340       0.00254891
H        0.67384861       6.27442668      17.51291728      -1.54166982       0.36176736       0.91147021       0.08240602       0.05729728       0.00118030
H        9.10935031       6.17940614      18.14614532       0.80763227      -0.22233940       0.65284653       0.06737294      -0.09566894      -0.28443266
H        2.75923721      12.13815364      20.07518500       0.91514978       0.22432322      -1.12800910       0.05426355      -0.14717455       0.00724361
H        6.36167936      12.06560243      20.78789082       0.69645829      -0.30860129       0.75264924      -0.08001339      -0.22848981       0.19514315
C        1.77674251       5.82383045      15.63721352       0.44458443      -2.12123300       1.31619986      -0.63543007      -1.00963584      -0.34695883
C        8.46289985       5.32204075      16.40154974       1.07183404      -1.68771155      -0.57787815       0.11263603      -0.07761795       0.11153619
C        7.18868048       5.16937180      22.59461331      -0.73289468       0.47766546      -1.75667944      -0.10235962      -0.18051524       0.36164669
C        8.06006756      12.50877083      21.86144062      -0.38104259      -0.73031339      -0.80024593      -0.25647462      -0.78293576       0.38429757
N        7.79710583      11.97279511      14.75966249       0.16337543      -0.11677190       0.45772033       0.55631377       1.24428782       0.28394760
N        7.61647881       5.22148469      15.29893956       1.03042910       0.29194203       2.12725875      -0.42608274       0.30310457       1.44539292
N        6.35334948       5.80417480      21.63621040       0.30336975      -0.31244570       0.53185098       0.70043098      -0.27304586      -0.35072513
N        0.93671780       5.89354885      22.79122492      -0.60938206       0.60195599       0.09391766      -0.22868627       0.14361682       0.59692047
N        8.61889165      11.40622783      16.95686643       0.29581969       1.61433759      -0.66370649       1.11166567      -0.50990090       0.15028155
N        8.48179558       6.30524981      17.33953499      -1.88122359       1.04753808       0.12265930      -0.78107855      -0.30039730      -0.13397537
N        1.97136518      11.85505486      20.63471459      -0.22537572      -0.02330368       0.84818698       0.04826675       0.36009313       0.49739448
N        7.05475343      11.73915283      21.52772732      -1.46892684      -0.08946415      -0.62201608      -0.15826909       0.62674451      -0.38697195
Pb      23.80941228       8.80623864      26.19759579       0.14405683      -0.01281297       0.00421856       1.00991070       0.68717280      -0.38160360
Pb       4.46242758       8.95297632      25.33800724       0.11828022       0.15170523       0.24108151      -3.31070686      -0.06722798       0.42093695
Pb      23.72284354       2.42433515      19.56219607       0.39374883      -0.06625008       0.15521859       6.34140350      -0.73641658       1.98985987
Pb      24.18109205       8.84313871      19.74939706       0.31682596       0.04978337       0.09285900      -6.11515223       1.65161831      -1.37678627
I        2.29738678       8.68601063      -0.03694755      -0.08805870       0.13481512       0.18978621       0.17285286       0.77306626       0.72689378
I        8.07043956       9.02470620      24.83536388       0.25748593       0.21155642      -0.00030239      -0.94306406       1.73668021      -2.12133525
I        7.94687752       8.95742140      19.86761545       0.37168157      -0.13157550      -0.14040843      -0.79043329       0.46760568       1.30816261
I        1.71550165       8.84552415      18.90245553      -0.32725872      -0.03839051      -0.18464280      -2.33217821       0.57694755      -1.94073377
I       24.04436077       5.57625086      26.20782089      -0.04769452      -0.21548217       0.01475249       1.84804191       2.69412252       1.85325995
I       24.69403212      11.86104558      12.96900506      -0.04338110       0.12920430       0.14686633      -0.68737476      -0.59612861      -2.98924705
I       24.06304400      12.06407037      20.04248897      -0.08500860       0.34252348      -0.10538399      -0.01413930      -2.11717079      -1.17273264
I       24.33924078       5.66925762      19.74511856      -0.35500310       0.05966812      -0.03044452       0.09610646      -2.57631250      -2.01313905
I       10.79624446       8.71616354      15.92449702       0.15291060      -0.01114117      -0.07089615       0.36733706       0.80214393       1.34895643
I        6.00647510       8.31006348      15.73281091      -0.02188715       0.29927212      -0.24937595      -2.19978139      -0.79389380      -1.79046320