768
Lattice="40.227587415121015 -0.7682833808457515 1.3263590934115383 0.394859312395313 23.52400323722727 0.25591382290307674 -0.5366011814355014 -0.10491616676151522 18.726843227480614" Properties=species:S:1:pos:R:3:forces:R:3:momenta:R:3 pbc="T T T"
H        6.51175731       1.91333322       3.86986861      -1.60985860       0.96084999       0.21218820       0.21847308      -0.03310573      -0.15650394
H       11.28655729      13.71437732       1.96312765      -0.48263211      -0.44303809       0.03412419       0.06536857       0.01101399       0.06632691
H        0.90970165       7.57105486       4.13618232       0.02941177       0.27820323       0.36136747       0.05727849       0.11731394      -0.02598120
H       16.40636442       7.88281810       2.45746943       0.22012649      -0.22931619      -0.00345949       0.10052940      -0.10246368       0.06545763
H        6.46515425       3.17571555       7.27667736      -0.66096226       0.00579150       0.18864050       0.06480984       0.06453482       0.05368007
H       11.13329963      11.54438029       0.85206218      -0.05852125       0.29039833      -0.13365016       0.02504376       0.05100174      -0.05745981
H        3.02649368       6.86577629       7.56941823      -0.11566329       0.05942506      -0.07315820      -0.10152856      -0.01481142      -0.03419288
H       14.70112692       8.51079778       0.88893017       0.58624038       0.56452624      -0.16514685       0.00430680       0.07526927       0.07846773
H        3.51437056       2.38415916       4.19752330       0.53473144      -0.66887133       0.48916689       0.14214476      -0.00220259       0.17984284
H       12.76513811      11.10921562       1.31282397      -0.04586125       0.10062719       0.10252130       0.05879858      -0.17862406      -0.05381126
H        3.60229484       8.67438446       7.72712669       0.28602028      -0.01875222       0.03666463      -0.13553470       0.01062410       0.04205833
H       13.73985199       7.14190528       1.23679883      -0.15718197      -0.10985016       0.08176299       0.11157267      -0.06521454      -0.03974011
H        4.73233408       4.23199104       3.02026391       0.54511174      -0.33252932       0.33386244      -0.02052770      -0.08334746      -0.02379495
H       13.83223713      12.57925690       3.26959380       0.89957506      -0.98349303      -0.22156644      -0.11518578       0.12920603       0.05832848
H        3.73187224       8.44324690       3.80880422      -0.33789043      -0.21705048      -0.16245282      -0.03265869      -0.06051471       0.07789433
H       14.57501783       5.62921640       3.34628606       1.00162142       0.77045168      -0.41871246      -0.14628008       0.02413076       0.05867105
H        6.49694612       4.04729560       2.94247921      -0.26880545      -0.27604667       0.15597667      -0.13683794       0.08213199       0.16852787
H       12.91006301      14.05835450       3.54831444       0.10725841      -1.07354565      -0.87570731       0.01995086       0.09154290       0.13390427
H        2.82672452       7.09443383       3.15283492       0.16516715      -0.88586517      -0.57081363       0.09919201      -0.07941657       0.30693931
H       14.52331702       8.22126698       5.60400469       0.30998242       0.23752539      -0.06195631      -0.13406453      -0.05140329      -0.14200548
C        5.51392926       2.51455098       3.86757204       2.92800980      -1.71670533       0.07610164       0.50080884       0.62503133      -0.68083416
C       12.05110717      12.87456611       2.09953558       0.46861486       0.79009375       0.14699288      -0.19879270       0.16970702      -0.23672908
C        1.76231071       8.25084068       4.36378012      -1.41750960      -0.70716994      -0.57678303       0.00744414      -0.45513570       0.22932089
C       15.49846219       7.24404146       2.36833468       1.57877329       1.03275064       0.38542521       0.66451014       0.87059613      -0.12314562
N        4.45114976       1.93661534       4.36443601      -1.35023106      -0.11518118       0.07439787      -0.27732031      -0.22287823      -0.58647548
N       11.98611891      11.80275473       1.35825927      -0.14246212      -0.83482885      -0.26290347      -0.23377738      -0.00691363       0.56778325
N        2.88702754       7.82988101       7.97273495      -0.16939887       0.22771631       0.02210513      -0.64237262       0.29454442      -0.11482033
N       14.60768028       7.68572770       1.47696475      -1.62041312      -1.31742462       0.05360983      -0.19930587       0.08486893      -0.27377397
N        5.59116759       3.70122525       3.31816320      -0.56251202       1.47570947      -1.02705259       0.00026504       0.60385694       0.17413941
N       13.03061766      13.16740918       2.95451294      -0.84944157       2.07651726       1.02381117       1.02740806       0.24875486       0.60853907
N        2.84574204       7.92235896       3.71363073       1.24766665       1.06203619       0.54870766      -0.47103517       0.16938498      -0.41126326
N       15.45129993       6.22924462       3.21391130      -1.86988366      -1.24283854       0.34198187       0.23026710       0.20855917       0.06439952
Pb      40.12710670       2.85659147       3.01051058       0.14375057       0.06676069      -0.01883441       0.02924501       3.64154418       0.93532419
Pb      17.77805311      11.20733342       4.78415222       0.14595543       0.60765119       0.18936294       3.32529806      -2.11888877      -2.42800297
Pb       7.58943633       9.39492900       1.88099691      -0.18389195      -0.15043194      -0.18529069      -0.20551637      -2.78277862       1.17514641
Pb       9.78712234       5.76964369       4.19191172      -0.02947225       0.00200298       0.19138262       2.63375477      -2.75380339      -0.24946230
I       38.78043959       4.75267893       5.25818197       0.13714098       0.16290640       0.25073286      -2.39955521      -0.54683558      -0.65646045
I       38.92986422       8.90374725       3.15990152      -0.07030522      -0.08349436       0.03528051       0.36677814      -0.57038394       3.00145864
I        8.53524963      11.26852884       4.30080708       0.23873092       0.31602690      -0.13957655      -0.78826637       0.47655858       0.61692886
I        8.94294918       3.76687639       2.02746399      -0.03082625      -0.06199758      -0.17557088       1.87074462       0.60402336      -2.05700500
I       17.02301131       1.86027556       2.38217688      -0.08975852      -0.18019547       0.15143453       0.55627678      -1.12651480      -0.71573625
I        0.90059091      13.19360551       4.09611110      -0.28246807      -0.03296460       0.12008872      -1.82723227      -1.02657073      -1.92376814
I       10.59822371       7.88906586       1.85878513       0.21638923       0.15232580       0.04609182       0.25077882      -0.38522932      -0.14485297
I        6.81835838       7.10865829       4.19811156      -0.07764710       0.18862627      -0.11243985       0.50341362      -0.33884280       0.63607431
I        2.90726414       4.98122557       1.42452976      -0.35705340       0.03268172       0.03963954      -1.74122750       0.75317841      -1.94050849
I       14.75568729      10.46206840       4.45218504       0.02771132      -0.04957339      -0.12729040       0.78471469       0.19929698       1.78976364
I        4.71364169      10.61445301       1.93216952      -0.08338893       0.04086933      -0.08043902       2.35218935      -0.06851375      -0.37980748
I       12.50370353       4.24975516       4.55021042       0.30159881       0.25223871       0.19329904       0.03553176       0.25262794      -1.90201373
H        6.01045089       1.46141314       8.76202746       0.16649207      -0.09427427      -0.27600797      -0.11871521      -0.00848860      -0.05708917
H       11.14600542      13.62242248       6.95816962       0.27874405      -0.65400098      -0.02037534      -0.08997425      -0.06994327      -0.18767498
H        0.97627504       7.18885429       8.68664169       0.14983877       0.35136475       0.13585887      -0.10408525      -0.07847217       0.13582802
H       16.39914826       7.56055858       6.87933077      -0.30540831       0.05271268       0.09316173       0.12895320       0.10652323       0.00793001
H        4.49851904       0.95534605       4.74696084      -0.20197915       0.48508166      -0.18843479      -0.18338805      -0.22126606       0.04315145
H       10.79525040      11.51831866       5.83208726      -0.48416175       0.10976426      -0.37655599       0.02068133      -0.02566056      -0.16307556
H        0.59165850       9.39899201       5.59417347       0.92076131      -0.07579909      -0.31689498       0.03242304      -0.07679674      -0.09550507
H       16.36352415       5.91095408       8.48150062      -0.56607463      -0.06154813      -0.43604542      -0.25442625      -0.14052918      -0.16431268
H        4.81336789       3.92258374       7.50071599      -0.34542903       0.11144463      -0.17244954       0.04672729       0.08378384      -0.01038995
H       12.44817204      11.05532903       5.99910753       0.48919417      -0.43494539       0.10567032       0.04361662       0.18608040       0.26328911
H        2.31058398       9.91564845       5.36923705       0.51848070       0.51084181       0.37373100      -0.21153730      -0.03292290       0.18187711
H       14.65702024       5.46894417       8.13689169      -0.15907022      -0.16228638       0.07957197       0.04360230      -0.09518430      -0.10110326
H        3.36432899       2.79248992       9.51713595       0.70619248      -0.80790036       0.04017015      -0.01606781       0.11792421      -0.05029133
H       13.74429974      12.35370715       7.93988293       1.19745524      -0.94269458      -0.26885309      -0.26111351       0.00224245       0.06772337
H        2.26120203       9.99238558       9.29633750      -0.52830779      -0.22868882      -0.08061452      -0.03324718      -0.15676370       0.11337452
H       13.57256521       6.89557470       6.14632474      -0.22687986      -0.18509292       0.18649880      -0.00929970      -0.18672780       0.15703119
H        4.06682219       1.18178359      10.02230858       0.06729955       0.41345810      -0.31297199       0.12845234      -0.09293709       0.08848829
H       13.09127371      13.99328143       8.14177858      -0.26743115      -0.58600946      -0.39694292       0.11813747       0.14425548      -0.20755406
H        0.60256648       9.36382066       9.74703377       0.33643863      -0.10098938      -0.22141700       0.00755580      -0.10430284       0.06235039
H       16.24758277       5.98447311       3.85019928       0.17599595       0.24072210      -0.28062209       0.05749955      -0.01767544      -0.08379902
C        5.20963921       2.20504792       8.60300587       0.75337129      -1.07541144       0.62276595      -0.19810715       0.38296218      -0.10360731
C       11.92611684      12.78023537       6.97594624      -0.49065434       0.90063183      -0.19472264      -0.28718990      -1.03781662       0.57330115
C        1.74828111       8.07580288       8.62107157      -0.15316475      -0.87092562      -0.20695806      -0.52896072      -0.01198534      -0.21795033
C       15.44774582       7.00780179       6.98513861       1.29735148      -0.30452662       0.41936691       0.30202639      -0.55207362       0.15199804
N        5.48645844       3.15376741       7.70689406       0.69312124       0.41127053      -0.15332881      -0.32364908       0.67085609       0.76312767
N       11.70672094      11.70088950       6.23318288       0.24687403       0.52960736       0.69422356      -0.34829234       0.78939426       0.29355312
N        1.54937654       9.28475610       5.14720903      -1.02031990      -0.01675269       0.31562892      -0.44339116       0.05130955       0.07005334
N       15.48812142       6.00918032       7.87651077       0.37206023       0.67701497      -0.18586784      -0.50995252       0.04779363      -0.47513950
N        4.12983285       2.01260864       9.38109991      -1.28361541       0.95422796       0.05960291      -0.70540934       0.88749353      -0.48081667
N       13.01279810      13.05140134       7.67818979      -1.05534282       1.38925305       0.43266689       0.45527533      -0.13590480      -0.26078295
N        1.49499302       9.25280981       9.19987342       0.34010606       0.64930184       0.42979023      -0.53481192       0.18993569       0.02534234
N       14.46095861       7.38857085       6.19984628      -0.70297046      -0.45961396      -0.12546798       0.07196954      -0.10282276       0.29710731
Pb      39.97190160       2.84592010       7.66865827      -0.07226727      -0.11823442       0.05883202       1.26260339      -0.33964303      -1.00907526
Pb      17.52387486      11.32672476       9.54138971       0.16664350       0.49974049      -0.06885593       3.96844189      -0.17305495       1.82388857
Pb       7.74646896       9.33495615       6.55409630      -0.50609612      -0.17334439       0.09420520       1.00123641       2.13488930      -2.24070854
Pb       9.70067884       5.72044917       8.92880206      -0.24429241      -0.05365330      -0.06635060      -0.17698167      -0.94075785      -0.43735097
I       38.83746488       4.85363106      10.00227215       0.06609578      -0.03814226      -0.01891917       0.30797400      -0.69598538       0.66581349
I       38.60685646       8.88755684       8.06052244       0.10013336      -0.10170387      -0.30776024       0.09060169      -1.19219137       0.11459946
I        8.47328139      11.33605973       8.83752108       0.16794875       0.07678999       0.29533443      -0.97358206       1.25365385      -1.79387822
I        8.87117033       3.64048212       6.45426303      -0.07281865       0.03298060       0.11256612       0.78852317       1.88195573       2.14537204
I       16.83833081       1.81892295       7.05233479       0.05756042      -0.29730302      -0.09659106       0.04679213      -1.25474301       0.02714902
I        0.65806367      13.21142674       8.99243637      -0.26419701      -0.13442541      -0.27390906       0.43843908      -0.40188567      -0.31881561
I       10.62488025       7.92416107       6.79730540       0.17966145      -0.07098073      -0.16830208       0.86664317      -0.42002544       0.30917821
I        6.65482706       7.18863404       8.79650686       0.07555602      -0.07112018       0.13583125       2.66101923      -0.83042169      -0.15966216
I        2.61630869       4.81698571       6.05360150       0.08633527       0.05235389       0.04959861      -1.51994338      -1.13775960       1.82788853
I       14.54517264      10.44979603       8.77374552       0.10981124      -0.08489091       0.14382475      -0.99210283       1.14080413       0.33865991
I        4.77045629      10.63790262       6.60883411      -0.01675649      -0.00466360      -0.09830021       0.71358645      -0.54476054       0.44704044
I       12.59808269       4.63717984       9.39248123       0.05216642      -0.26218844      -0.05929779      -1.07188209      -1.76570478      -1.51158581
H        6.24345672       1.86087514      13.23329022      -1.60985860       0.96084999       0.21218820       0.21847308      -0.03310573      -0.15650394
H       11.01825670      13.66191924      11.32654926      -0.48263211      -0.44303809       0.03412419       0.06536857       0.01101399       0.06632691
H        0.64140106       7.51859678      13.49960393       0.02941177       0.27820323       0.36136747       0.05727849       0.11731394      -0.02598120
H       16.13806383       7.83036002      11.82089104       0.22012649      -0.22931619      -0.00345949       0.10052940      -0.10246368       0.06545763
H        6.19685366       3.12325747      16.64009897      -0.66096226       0.00579150       0.18864050       0.06480984       0.06453482       0.05368007
H       10.86499904      11.49192221      10.21548379      -0.05852125       0.29039833      -0.13365016       0.02504376       0.05100174      -0.05745981
H        2.75819309       6.81331821      16.93283984      -0.11566329       0.05942506      -0.07315820      -0.10152856      -0.01481142      -0.03419288
H       14.43282633       8.45833970      10.25235178       0.58624038       0.56452624      -0.16514685       0.00430680       0.07526927       0.07846773
H        3.24606997       2.33170108      13.56094491       0.53473144      -0.66887133       0.48916689       0.14214476      -0.00220259       0.17984284
H       12.49683752      11.05675754      10.67624558      -0.04586125       0.10062719       0.10252130       0.05879858      -0.17862406      -0.05381126
H        3.33399425       8.62192638      17.09054830       0.28602028      -0.01875222       0.03666463      -0.13553470       0.01062410       0.04205833
H       13.47155140       7.08944720      10.60022044      -0.15718197      -0.10985016       0.08176299       0.11157267      -0.06521454      -0.03974011
H        4.46403349       4.17953296      12.38368552       0.54511174      -0.33252932       0.33386244      -0.02052770      -0.08334746      -0.02379495
H       13.56393654      12.52679882      12.63301541       0.89957506      -0.98349303      -0.22156644      -0.11518578       0.12920603       0.05832848
H        3.46357165       8.39078882      13.17222583      -0.33789043      -0.21705048      -0.16245282      -0.03265869      -0.06051471       0.07789433
H       14.30671724       5.57675832      12.70970767       1.00162142       0.77045168      -0.41871246      -0.14628008       0.02413076       0.05867105
H        6.22864553       3.99483752      12.30590082      -0.26880545      -0.27604667       0.15597667      -0.13683794       0.08213199       0.16852787
H       12.64176242      14.00589642      12.91173605       0.10725841      -1.07354565      -0.87570731       0.01995086       0.09154290       0.13390427
H        2.55842393       7.04197575      12.51625653       0.16516715      -0.88586517      -0.57081363       0.09919201      -0.07941657       0.30693931
H       14.25501643       8.16880890      14.96742630       0.30998242       0.23752539      -0.06195631      -0.13406453      -0.05140329      -0.14200548
C        5.24562867       2.46209290      13.23099365       2.92800980      -1.71670533       0.07610164       0.50080884       0.62503133      -0.68083416
C       11.78280658      12.82210803      11.46295719       0.46861486       0.79009375       0.14699288      -0.19879270       0.16970702      -0.23672908
C        1.49401012       8.19838260      13.72720173      -1.41750960      -0.70716994      -0.57678303       0.00744414      -0.45513570       0.22932089
C       15.23016160       7.19158338      11.73175629       1.57877329       1.03275064       0.38542521       0.66451014       0.87059613      -0.12314562
N        4.18284917       1.88415726      13.72785762      -1.35023106      -0.11518118       0.07439787      -0.27732031      -0.22287823      -0.58647548
N       11.71781832      11.75029665      10.72168088      -0.14246212      -0.83482885      -0.26290347      -0.23377738      -0.00691363       0.56778325
N        2.61872695       7.77742293      17.33615656      -0.16939887       0.22771631       0.02210513      -0.64237262       0.29454442      -0.11482033
N       14.33937969       7.63326962      10.84038636      -1.62041312      -1.31742462       0.05360983      -0.19930587       0.08486893      -0.27377397
N        5.32286700       3.64876717      12.68158481      -0.56251202       1.47570947      -1.02705259       0.00026504       0.60385694       0.17413941
N       12.76231707      13.11495110      12.31793455      -0.84944157       2.07651726       1.02381117       1.02740806       0.24875486       0.60853907
N        2.57744145       7.86990088      13.07705234       1.24766665       1.06203619       0.54870766      -0.47103517       0.16938498      -0.41126326
N       15.18299934       6.17678654      12.57733291      -1.86988366      -1.24283854       0.34198187       0.23026710       0.20855917       0.06439952
Pb      39.85880610       2.80413339      12.37393220       0.14375057       0.06676069      -0.01883441       0.02924501       3.64154418       0.93532419
Pb      17.50975252      11.15487534      14.14757383       0.14595543       0.60765119       0.18936294       3.32529806      -2.11888877      -2.42800297
Pb       7.32113574       9.34247092      11.24441852      -0.18389195      -0.15043194      -0.18529069      -0.20551637      -2.78277862       1.17514641
Pb       9.51882175       5.71718561      13.55533333      -0.02947225       0.00200298       0.19138262       2.63375477      -2.75380339      -0.24946230
I       38.51213899       4.70022085      14.62160359       0.13714098       0.16290640       0.25073286      -2.39955521      -0.54683558      -0.65646045
I       38.66156362       8.85128917      12.52332314      -0.07030522      -0.08349436       0.03528051       0.36677814      -0.57038394       3.00145864
I        8.26694904      11.21607076      13.66422869       0.23873092       0.31602690      -0.13957655      -0.78826637       0.47655858       0.61692886
I        8.67464859       3.71441831      11.39088560      -0.03082625      -0.06199758      -0.17557088       1.87074462       0.60402336      -2.05700500
I       16.75471072       1.80781748      11.74559849      -0.08975852      -0.18019547       0.15143453       0.55627678      -1.12651480      -0.71573625
I        0.63229032      13.14114743      13.45953271      -0.28246807      -0.03296460       0.12008872      -1.82723227      -1.02657073      -1.92376814
I       10.32992312       7.83660778      11.22220674       0.21638923       0.15232580       0.04609182       0.25077882      -0.38522932      -0.14485297
I        6.55005779       7.05620021      13.56153317      -0.07764710       0.18862627      -0.11243985       0.50341362      -0.33884280       0.63607431
I        2.63896355       4.92876749      10.78795137      -0.35705340       0.03268172       0.03963954      -1.74122750       0.75317841      -1.94050849
I       14.48738670      10.40961032      13.81560665       0.02771132      -0.04957339      -0.12729040       0.78471469       0.19929698       1.78976364
I        4.44534110      10.56199493      11.29559113      -0.08338893       0.04086933      -0.08043902       2.35218935      -0.06851375      -0.37980748
I       12.23540294       4.19729708      13.91363203       0.30159881       0.25223871       0.19329904       0.03553176       0.25262794      -1.90201373
H        5.74215030       1.40895506      18.12544907       0.16649207      -0.09427427      -0.27600797      -0.11871521      -0.00848860      -0.05708917
H       10.87770483      13.56996440      16.32159123       0.27874405      -0.65400098      -0.02037534      -0.08997425      -0.06994327      -0.18767498
H        0.70797445       7.13639621      18.05006330       0.14983877       0.35136475       0.13585887      -0.10408525      -0.07847217       0.13582802
H       16.13084767       7.50810050      16.24275238      -0.30540831       0.05271268       0.09316173       0.12895320       0.10652323       0.00793001
H        4.23021845       0.90288797      14.11038245      -0.20197915       0.48508166      -0.18843479      -0.18338805      -0.22126606       0.04315145
H       10.52694981      11.46586058      15.19550887      -0.48416175       0.10976426      -0.37655599       0.02068133      -0.02566056      -0.16307556
H        0.32335791       9.34653393      14.95759508       0.92076131      -0.07579909      -0.31689498       0.03242304      -0.07679674      -0.09550507
H       16.09522356       5.85849600      17.84492223      -0.56607463      -0.06154813      -0.43604542      -0.25442625      -0.14052918      -0.16431268
H        4.54506730       3.87012566      16.86413760      -0.34542903       0.11144463      -0.17244954       0.04672729       0.08378384      -0.01038995
H       12.17987145      11.00287095      15.36252914       0.48919417      -0.43494539       0.10567032       0.04361662       0.18608040       0.26328911
H        2.04228339       9.86319037      14.73265866       0.51848070       0.51084181       0.37373100      -0.21153730      -0.03292290       0.18187711
H       14.38871965       5.41648609      17.50031330      -0.15907022      -0.16228638       0.07957197       0.04360230      -0.09518430      -0.10110326
H        3.63262958       2.84494800       0.15371434       0.70619248      -0.80790036       0.04017015      -0.01606781       0.11792421      -0.05029133
H       13.47599915      12.30124907      17.30330454       1.19745524      -0.94269458      -0.26885309      -0.26111351       0.00224245       0.06772337
H        1.99290144       9.93992750      18.65975911      -0.52830779      -0.22868882      -0.08061452      -0.03324718      -0.15676370       0.11337452
H       13.30426462       6.84311662      15.50974635      -0.22687986      -0.18509292       0.18649880      -0.00929970      -0.18672780       0.15703119
H        4.33512278       1.23424167       0.65888697       0.06729955       0.41345810      -0.31297199       0.12845234      -0.09293709       0.08848829
H       12.82297312      13.94082335      17.50520019      -0.26743115      -0.58600946      -0.39694292       0.11813747       0.14425548      -0.20755406
H        0.87086707       9.41627874       0.38361216       0.33643863      -0.10098938      -0.22141700       0.00755580      -0.10430284       0.06235039
H       15.97928218       5.93201503      13.21362089       0.17599595       0.24072210      -0.28062209       0.05749955      -0.01767544      -0.08379902
C        4.94133862       2.15258984      17.96642748       0.75337129      -1.07541144       0.62276595      -0.19810715       0.38296218      -0.10360731
C       11.65781625      12.72777729      16.33936785      -0.49065434       0.90063183      -0.19472264      -0.28718990      -1.03781662       0.57330115
C        1.47998052       8.02334480      17.98449318      -0.15316475      -0.87092562      -0.20695806      -0.52896072      -0.01198534      -0.21795033
C       15.17944523       6.95534371      16.34856022       1.29735148      -0.30452662       0.41936691       0.30202639      -0.55207362       0.15199804
N        5.21815785       3.10130933      17.07031567       0.69312124       0.41127053      -0.15332881      -0.32364908       0.67085609       0.76312767
N       11.43842035      11.64843142      15.59660449       0.24687403       0.52960736       0.69422356      -0.34829234       0.78939426       0.29355312
N        1.28107595       9.23229802      14.51063064      -1.02031990      -0.01675269       0.31562892      -0.44339116       0.05130955       0.07005334
N       15.21982083       5.95672224      17.23993238       0.37206023       0.67701497      -0.18586784      -0.50995252       0.04779363      -0.47513950
N        3.86153226       1.96015056      18.74452152      -1.28361541       0.95422796       0.05960291      -0.70540934       0.88749353      -0.48081667
N       12.74449751      12.99894326      17.04161140      -1.05534282       1.38925305       0.43266689       0.45527533      -0.13590480      -0.26078295
N        1.22669243       9.20035173      18.56329503       0.34010606       0.64930184       0.42979023      -0.53481192       0.18993569       0.02534234
N       14.19265802       7.33611277      15.56326789      -0.70297046      -0.45961396      -0.12546798       0.07196954      -0.10282276       0.29710731
Pb      39.70360100       2.79346202      17.03207989      -0.07226727      -0.11823442       0.05883202       1.26260339      -0.33964303      -1.00907526
Pb      17.25557427      11.27426668      18.90481132       0.16664350       0.49974049      -0.06885593       3.96844189      -0.17305495       1.82388857
Pb       7.47816837       9.28249807      15.91751791      -0.50609612      -0.17334439       0.09420520       1.00123641       2.13488930      -2.24070854
Pb       9.43237825       5.66799109      18.29222367      -0.24429241      -0.05365330      -0.06635060      -0.17698167      -0.94075785      -0.43735097
I       38.56916428       4.80117298      19.36569377       0.06609578      -0.03814226      -0.01891917       0.30797400      -0.69598538       0.66581349
I       38.33855586       8.83509876      17.42394406       0.10013336      -0.10170387      -0.30776024       0.09060169      -1.19219137       0.11459946
I        8.20498080      11.28360165      18.20094269       0.16794875       0.07678999       0.29533443      -0.97358206       1.25365385      -1.79387822
I        8.60286974       3.58802404      15.81768464      -0.07281865       0.03298060       0.11256612       0.78852317       1.88195573       2.14537204
I       16.57003022       1.76646487      16.41575640       0.05756042      -0.29730302      -0.09659106       0.04679213      -1.25474301       0.02714902
I        0.38976308      13.15896866      18.35585798      -0.26419701      -0.13442541      -0.27390906       0.43843908      -0.40188567      -0.31881561
I       10.35657966       7.87170299      16.16072701       0.17966145      -0.07098073      -0.16830208       0.86664317      -0.42002544       0.30917821
I        6.38652647       7.13617596      18.15992847       0.07555602      -0.07112018       0.13583125       2.66101923      -0.83042169      -0.15966216
I        2.34800810       4.76452763      15.41702311       0.08633527       0.05235389       0.04959861      -1.51994338      -1.13775960       1.82788853
I       14.27687205      10.39733795      18.13716713       0.10981124      -0.08489091       0.14382475      -0.99210283       1.14080413       0.33865991