768
Lattice="32.0609120611585 -0.5112882221814271 -0.5475189371990378 0.2896562838185469 31.11650681404145 -0.5358671673453327 0.3216333527679892 0.2519783857508381 17.761452272036312" Properties=species:S:1:pos:R:3:forces:R:3:momenta:R:3 pbc="T T T"
H        1.93751587       2.71980832       3.17689589       0.37336863      -0.07626731      -0.20054558      -0.15076268      -0.00153138       0.18248427
H        2.18525493       2.97093055       5.46794989      -0.23332300       1.71703485       0.47839259      -0.02335773       0.03499050       0.06365255
H        2.38494219       1.29952742       5.83795129      -0.02898168       0.23287143      -0.33745976      -0.06289575       0.14973838       0.13748289
H        2.46169984      30.80573920       3.21409841       0.04507619       1.02755773      -0.54395003      -0.09475412       0.02635729       0.19703585
H        2.16409067       0.57444405       2.15740233      -0.24948471       0.15380156       0.92985407      -0.02421761       0.07333563      -0.14419576
H        6.52136465       2.99487804      15.84117256      -0.01977559       0.86134567       0.73014947      -0.16033473      -0.06248418       0.15269910
H        6.27944671       1.88123373       0.38394842      -0.13760719      -0.01661376      -0.37151926       0.18457112      -0.06945165       0.19885537
H        6.18173790       3.44195322       1.08017568       0.00518121       0.42225023       0.24190510       0.05000181      -0.00136988       0.05188063
H        6.57217595       5.77512542      17.23805957       0.00905691       0.35260555       0.36109392       0.03006957      -0.06396470      -0.14166776
H        6.53852003       5.36797044      15.53966448      -0.16912704       0.33956901      -0.97758425       0.05366608       0.07152207       0.16096390
C        2.13480222       1.83156800       3.81820681      -0.26108115      -1.63480425      -1.08470597       0.14374552       0.44837062       0.40635211
C        6.53242589       3.70682837      16.73690156       0.19504065       0.01474744       0.18998988      -0.02738788       0.53334802       0.59025577
N        2.25420860       2.04575749       5.12567560       0.15844119      -1.51071630       0.85122964       0.33570711       0.12539209      -0.69238345
N        2.09769018       0.60340093       3.21250165       0.24171062       0.11507660      -0.25662291      -0.73770261       0.40731889       1.31813725
N        6.20792059       2.89575462       0.21120297      -0.03302840      -0.10260123      -0.69632983       0.93387184      -0.01103731       0.07530844
N        6.58351235       5.06240416      16.49963141       0.10113620      -1.85255542       0.45016004       0.26427414      -0.77488814       0.24594754
Pb       5.34733944      30.03198938      16.33375781      -0.14344110       0.04650884      -0.01705878      -0.84380165       0.60455785       1.56237430
Pb       1.37670460      30.10111948      16.38958170      -0.42090886      -0.38372015       0.39729937      -2.42361383       0.88576218       1.49191014
I        7.03490199      30.67825655       0.96212502      -0.03164490       0.00399409      -0.02028968       0.57788576      -0.41081055      -0.15668728
I        1.65116706       5.04441055       1.16679561       0.14618259       0.02461674       0.19249368      -0.14719476      -1.41584494      -0.30929196
I        6.86978837       0.15934614       5.76844058       0.14448385       0.17357756       0.15959788       0.27164648      -0.71685553       0.63318409
I        1.64604146       5.60251608       5.79691192       0.03661083       0.13663281      -0.28877795       0.66994766      -0.86753349       0.34289412
I        5.71103919       4.09011728       3.77683321       0.15056067       0.37467459      -0.05435387       1.03778582      -0.56672055      -1.73017832
I        2.97458082       1.48071858      17.45228257       0.04244545       0.05127837      -0.06415262      -1.70253757       0.77046764      -2.08830217
H        2.04638082      10.53520209      17.44104582      -0.03580849       0.00733498      -0.19896313       0.15754037       0.06508781      -0.08881110
H        0.98848175       8.29173095       0.51562583       0.10317527       0.00092485       0.07985059       0.01395230       0.09818851       0.04187120
H        1.38269475       7.71500411      16.72182397       0.01683718      -0.26338389      -0.20312676       0.06146961       0.30274632      -0.07918600
H        2.05292943       9.36886372      14.64095013       0.13060647       0.78151003       1.12085719       0.11706053       0.19684469      -0.05902195
H        2.53866912      10.99854097      15.18734404      -0.20276054      -0.67585767       0.37245980      -0.07038447       0.01085444      -0.19855362
H        6.56987999      10.46262283       4.27184897      -0.02081329      -0.31843577      -0.07593700       0.17188383       0.12922798      -0.01490525
H        7.03266563      12.64296839       4.88649583       0.00133692       0.12025070       0.57562993      -0.03316341      -0.05522566       0.04664051
H        6.71642367      13.31260636       3.29035636       0.02575388      -0.39696651       0.06405775      -0.05532955      -0.13026795       0.15621498
H        6.07928959      11.75118068       1.53930005       0.15091420       0.37681521      -0.32949972       0.20193473       0.02510087       0.03652004
H       14.85041615      12.09395648       4.78517670      -0.01361272       0.32489754      -0.53674067       0.04568786       0.05911014      -0.07788486
C        1.89521490       9.71838273      16.71303840       0.38664561       1.31547684       0.71484159      -0.50098410       0.31492432      -0.38320804
C        6.52374327      11.25529915       3.52029344       0.01831884       0.96172933      -1.11300933      -0.72991888      -0.54739099      -0.17502509
N        1.49793309       8.57832262      17.25645572      -0.29709857      -0.69124730      -0.23685258      -0.28772411      -0.00970449       0.10738647
N        2.20130840      10.02568948      15.46080688      -0.02268534      -0.50577325      -1.76606039      -1.14838192       0.20911215       0.01181851
N        6.78593461      12.48080503       3.91043461       0.04787254       0.32593318      -0.02933119      -0.92469510       0.25606326       0.08492851
N        6.20277602      11.01468163       2.24661675      -0.22144386      -0.27842322       0.97894885       0.56919257       0.35358712      -0.45548960
Pb       3.68134748       6.61199291       3.33215716       0.12012558      -0.10978069      -0.00060413      -0.68612282      -0.33447311       0.31666294
Pb      31.77821655       6.01280239       2.66165975       0.35653985      -0.03373142       0.14491317       1.76806283      -1.74352577      -0.14284731
I        5.66462934       7.97307020       5.47252531      -0.04207729       0.17890008       0.03125313       2.97247892       0.23648168      -0.86317741
I        2.81181095      13.38971121       5.37230381       0.17197291      -0.00534978       0.01349080       1.63482072       1.03813301      -0.94959347
I        5.83999850       7.65027304       1.03938549      -0.14257881      -0.02731674       0.08304880      -0.33641522       1.10631330      -1.82751172
I        3.02119510      12.58757601       0.76903934       0.04835512       0.06672490       0.21705106       1.10441639       1.67368729       0.21498092
I        7.22046084      12.10026582      16.38071648       0.07280258      -0.33829744      -0.02448839       0.29146120       0.89332415       0.59997061
I        1.61142116       9.27771792       3.02385078       0.00464957      -0.36036510       0.03646470      -1.14457773      -0.81794159       0.59494690
H        9.76606085       2.45042739       2.72288785       0.19534172      -0.63408546       0.13779388       0.12566253       0.05018164       0.08833552
H        9.63599798       3.03528654       4.89298081       0.23319706      -0.73174525      -0.14217507      -0.23848241       0.08261798       0.05316906
H       10.01997169       1.45193274       5.54893719      -0.01318770      -0.16390561      -0.18670441      -0.04670966      -0.09710409      -0.00461682
H       10.35398795      30.73270132       3.20322575       0.24967090       0.16183703      -0.14426934       0.11544495      -0.03633338      -0.20092023
H       10.20595547       0.21313076       2.08409031       0.00362158      -0.03894723      -0.31949684      -0.01953767      -0.07046200       0.04238136
H       14.52494721       5.04829252      17.28439006       0.02620193      -0.17514244       0.04050620      -0.04596676      -0.25161324      -0.20874798
H       14.19353665       5.08980236      15.01125047       0.26257459      -1.04915949      -0.02020932       0.05239857       0.13782644      -0.00157139
H       14.69120522       3.33088688      14.72881797      -0.06089010       0.88657043       0.95168496      -0.09828510      -0.10695201       0.00817819
H       15.31652337       2.12008292      16.97677423       0.05436780      -0.55735919      -0.13395138       0.01054749      -0.06223783      -0.05411931
H       14.85649758       2.73344749       0.75453839      -0.05235878       0.48415013      -0.59281377      -0.05249049       0.09301401      -0.01172964
C        9.90551675       1.62559321       3.46279620      -0.27984466       1.61996065      -0.06384234      -0.02625571      -0.05223699       0.49717506
C       14.74155243       4.07991268      16.74004996       0.03011650       0.02824540       0.16735099      -0.48100233       0.05117177       0.37500390
N        9.85538157       2.02525873       4.70841225      -0.26826545       1.25063235       0.89520019       0.10628696       0.24019376      -0.30320209
N       10.07550936       0.41105140       3.07477290       0.05041275      -1.31069187      -0.19130344      -0.55458957      -0.85467234      -0.05592243
N       14.56033660       4.14581861      15.40136844      -0.16340591      -0.11683126      -0.26172929      -0.52419113       0.09153694       0.30252092
N       14.85409356       2.74893911      -0.29187507      -0.10267610       0.19629256      -0.30109178       0.55408432      -0.41472789       0.34135730
Pb      13.28330866      29.71627587      16.17958669       0.55158898       0.04407824       0.28834141       0.13349377      -0.84485654      -0.63097597
Pb       9.41768198      30.08299337      16.28943255      -0.11095715       0.05622304       0.11564559       1.71190792      -1.40360697       0.90544958
I       14.89682773      30.20461626       0.98606118       0.16784743       0.08789471      -0.43733994       0.72930513       3.17787691       2.10708046
I        9.43898785       4.99557211       1.30708509       0.05567336      -0.22645962      -0.30380427       0.48282500      -1.70451833       1.85463913
I       15.02417546      -0.08258450       5.86070434      -0.08057629       0.53927554      -0.11682013       0.73698118      -0.60755646       0.48675331
I        9.89803116       5.69564754       5.65232125       0.24814694      -0.11557824      -0.20787263       1.58624107      -1.13990305      -1.51530935
I       13.81830003       3.67380921       2.95886818      -0.09407740      -0.08951571       0.05523780       0.60163093      -0.63422856       0.75503019
I       11.44607883       1.34712038      17.23020248      -0.23462503       0.11492574      -0.10427833      -0.83860382      -0.43165895      -0.17017333
H       10.81233371      10.59381429      17.00625527      -0.05988344      -0.52388833      -0.02126857       0.19952156       0.01476038      -0.02944123
H       10.98804216      10.73928337      14.71954601       0.31033797       0.70545736      -0.28943496       0.07622647       0.01701811       0.07850574
H       10.95145275       9.00831197      14.43255216       0.05377912      -0.38296100      -0.61514556      -0.23795258       0.01915134       0.18497866
H       10.70969586       7.54157704      16.51502518      -0.33432263      -0.54526413      -0.57701097      -0.02262553       0.24311647      -0.01086153
H       10.26714866       8.19495104       0.26024689      -0.26032525      -0.15488978       0.74067711       0.03879394      -0.18503703      -0.00354876
H       14.53178537      10.04068696       3.91905917      -0.07536776       0.23779000      -0.56954957      -0.00407898      -0.12104266      -0.18258779
H       14.23284704       9.70189186       1.55020503       0.20550733       0.57861825       0.15062309       0.10976659       0.04265323       0.03377435
H       14.49786613      11.40900172       1.19199414      -0.05729326       0.00646226       0.13476017       0.02365947       0.05333392       0.01177583
H       14.79822973      12.94518736       3.14864905      -0.06809055      -0.10961439       0.35585537       0.04467976      -0.06294256      -0.00609012
H        5.94558359      10.07857734       1.94108226       0.00575730      -0.71778577      -0.18151459       0.08319175       0.04964633      -0.12414502
C       10.81364674       9.63807414      16.40025686      -0.49585738      -1.21035165       0.16521495       0.08995313       0.06802192       0.15009877
C       14.56028678      10.88853684       3.20020235       0.04646975       0.99201088       0.07413815      -0.10604059       0.27078326       0.74204683
N       11.03536076       9.78054362      15.08885437      -0.37057198      -0.33286131       1.20675582      -0.59601335       0.71989519      -0.27967638
N       10.55177036       8.45086680      17.00274173       1.08618171       2.60587693      -0.48565612      -0.25003238       0.03496623       0.44684231
N       14.42435260      10.66727232       1.89716302      -0.06250711      -0.57069805       0.39113634      -0.50780470      -0.23640398      -0.18564694
N       14.70871193      12.10286043       3.74413904       0.03707184      -1.31228142      -0.15204704       0.69994133      -0.41463820      -0.32618678
Pb      11.88733227       6.28682394       2.82153156      -0.15833677       0.05382320       0.39184948      -1.27016703      -0.03649631      -3.39554123
Pb       7.89839387       6.81483464       3.41570397      -0.46349536      -0.27007073       0.01694887      -1.87367410      -2.86161443       1.65776398
I       13.79387511       7.45860863       5.18423274      -0.04905550       0.14337024       0.09791341       2.43193116       0.13287230      -1.52395070
I       10.90600835      13.41890812       5.24132332      -0.16650100      -0.34797956      -0.18348396       0.40966423       0.10077753       1.37209557
I       13.87269049       7.40692239       0.53674473      -0.12424075      -0.05443062       0.02897332       0.03801975       1.15225304       1.76440958
I       10.96917665      12.57025874       0.78859364      -0.26481074       0.02167695       0.02937227       0.54661861       0.33283931      -0.52658002
I       15.20943057      11.56449879      15.93867469       0.02742929       0.16788822       0.27302792      -1.21765477      -0.18932650      -0.46061061
I       10.08905681       9.12163074       2.83885820      -0.00769080      -0.16699550      -0.09326290      -0.97425152       0.28535455      -0.54058241
H        2.09833255       2.84579751      12.05762203       0.37336863      -0.07626731      -0.20054558      -0.15076268      -0.00153138       0.18248427
H        2.34607161       3.09691974      14.34867603      -0.23332300       1.71703485       0.47839259      -0.02335773       0.03499050       0.06365255
H        2.54575887       1.42551661      14.71867743      -0.02898168       0.23287143      -0.33745976      -0.06289575       0.14973838       0.13748289
H        2.62251652      30.93172840      12.09482455       0.04507619       1.02755773      -0.54395003      -0.09475412       0.02635729       0.19703585
H        2.32490735       0.70043324      11.03812847      -0.24948471       0.15380156       0.92985407      -0.02421761       0.07333563      -0.14419576
H        6.36054798       2.86888884       6.96044643      -0.01977559       0.86134567       0.73014947      -0.16033473      -0.06248418       0.15269910
H        6.44026339       2.00722292       9.26467456      -0.13760719      -0.01661376      -0.37151926       0.18457112      -0.06945165       0.19885537
H        6.34255458       3.56794241       9.96090182       0.00518121       0.42225023       0.24190510       0.05000181      -0.00136988       0.05188063
H        6.41135928       5.64913622       8.35733344       0.00905691       0.35260555       0.36109392       0.03006957      -0.06396470      -0.14166776
H        6.37770336       5.24198124       6.65893835      -0.16912704       0.33956901      -0.97758425       0.05366608       0.07152207       0.16096390
C        2.29561890       1.95755719      12.69893295      -0.26108115      -1.63480425      -1.08470597       0.14374552       0.44837062       0.40635211
C        6.37160922       3.58083917       7.85617543       0.19504065       0.01474744       0.18998988      -0.02738788       0.53334802       0.59025577
N        2.41502528       2.17174668      14.00640174       0.15844119      -1.51071630       0.85122964       0.33570711       0.12539209      -0.69238345
N        2.25850686       0.72939012      12.09322779       0.24171062       0.11507660      -0.25662291      -0.73770261       0.40731889       1.31813725
N        6.36873727       3.02174381       9.09192911      -0.03302840      -0.10260123      -0.69632983       0.93387184      -0.01103731       0.07530844
N        6.42269568       4.93641496       7.61890528       0.10113620      -1.85255542       0.45016004       0.26427414      -0.77488814       0.24594754
Pb       5.18652276      29.90600019       7.45303168      -0.14344110       0.04650884      -0.01705878      -0.84380165       0.60455785       1.56237430
Pb       1.21588792      29.97513029       7.50885557      -0.42090886      -0.38372015       0.39729937      -2.42361383       0.88576218       1.49191014
I        7.19571867      30.80424575       9.84285116      -0.03164490       0.00399409      -0.02028968       0.57788576      -0.41081055      -0.15668728
I        1.81198374       5.17039974      10.04752175       0.14618259       0.02461674       0.19249368      -0.14719476      -1.41584494      -0.30929196
I        7.03060505       0.28533533      14.64916672       0.14448385       0.17357756       0.15959788       0.27164648      -0.71685553       0.63318409
I        1.80685814       5.72850527      14.67763806       0.03661083       0.13663281      -0.28877795       0.66994766      -0.86753349       0.34289412
I        5.87185587       4.21610647      12.65755935       0.15056067       0.37467459      -0.05435387       1.03778582      -0.56672055      -1.73017832
I        2.81376415       1.35472938       8.57155644       0.04244545       0.05127837      -0.06415262      -1.70253757       0.77046764      -2.08830217
H        1.88556415      10.40921289       8.56031969      -0.03580849       0.00733498      -0.19896313       0.15754037       0.06508781      -0.08881110
H        1.14929843       8.41772014       9.39635197       0.10317527       0.00092485       0.07985059       0.01395230       0.09818851       0.04187120
H        1.22187808       7.58901491       7.84109784       0.01683718      -0.26338389      -0.20312676       0.06146961       0.30274632      -0.07918600
H        1.89211276       9.24287452       5.76022400       0.13060647       0.78151003       1.12085719       0.11706053       0.19684469      -0.05902195
H        2.37785245      10.87255177       6.30661791      -0.20276054      -0.67585767       0.37245980      -0.07038447       0.01085444      -0.19855362
H        6.73069667      10.58861202      13.15257511      -0.02081329      -0.31843577      -0.07593700       0.17188383       0.12922798      -0.01490525
H        7.19348231      12.76895758      13.76722197       0.00133692       0.12025070       0.57562993      -0.03316341      -0.05522566       0.04664051
H        6.87724035      13.43859555      12.17108250       0.02575388      -0.39696651       0.06405775      -0.05532955      -0.13026795       0.15621498
H        6.24010627      11.87716987      10.42002619       0.15091420       0.37681521      -0.32949972       0.20193473       0.02510087       0.03652004
H       15.01123283      12.21994567      13.66590284      -0.01361272       0.32489754      -0.53674067       0.04568786       0.05911014      -0.07788486
C        1.73439823       9.59239353       7.83231227       0.38664561       1.31547684       0.71484159      -0.50098410       0.31492432      -0.38320804
C        6.68455995      11.38128834      12.40101958       0.01831884       0.96172933      -1.11300933      -0.72991888      -0.54739099      -0.17502509
N        1.33711642       8.45233342       8.37572959      -0.29709857      -0.69124730      -0.23685258      -0.28772411      -0.00970449       0.10738647
N        2.04049173       9.89970028       6.58008075      -0.02268534      -0.50577325      -1.76606039      -1.14838192       0.20911215       0.01181851
N        6.94675129      12.60679422      12.79116075       0.04787254       0.32593318      -0.02933119      -0.92469510       0.25606326       0.08492851
N        6.36359270      11.14067082      11.12734289      -0.22144386      -0.27842322       0.97894885       0.56919257       0.35358712      -0.45548960
Pb       3.84216416       6.73798210      12.21288330       0.12012558      -0.10978069      -0.00060413      -0.68612282      -0.33447311       0.31666294
Pb      31.93903323       6.13879158      11.54238589       0.35653985      -0.03373142       0.14491317       1.76806283      -1.74352577      -0.14284731
I        5.82544602       8.09905939      14.35325145      -0.04207729       0.17890008       0.03125313       2.97247892       0.23648168      -0.86317741
I        2.97262763      13.51570040      14.25302995       0.17197291      -0.00534978       0.01349080       1.63482072       1.03813301      -0.94959347
I        6.00081518       7.77626223       9.92011163      -0.14257881      -0.02731674       0.08304880      -0.33641522       1.10631330      -1.82751172
I        3.18201178      12.71356520       9.64976548       0.04835512       0.06672490       0.21705106       1.10441639       1.67368729       0.21498092
I        7.05964417      11.97427662       7.49999035       0.07280258      -0.33829744      -0.02448839       0.29146120       0.89332415       0.59997061
I        1.77223784       9.40370711      11.90457692       0.00464957      -0.36036510       0.03646470      -1.14457773      -0.81794159       0.59494690
H        9.92687753       2.57641658      11.60361399       0.19534172      -0.63408546       0.13779388       0.12566253       0.05018164       0.08833552
H        9.79681466       3.16127573      13.77370695       0.23319706      -0.73174525      -0.14217507      -0.23848241       0.08261798       0.05316906
H       10.18078837       1.57792193      14.42966333      -0.01318770      -0.16390561      -0.18670441      -0.04670966      -0.09710409      -0.00461682
H       10.51480463      30.85869052      12.08395189       0.24967090       0.16183703      -0.14426934       0.11544495      -0.03633338      -0.20092023
H       10.36677215       0.33911995      10.96481645       0.00362158      -0.03894723      -0.31949684      -0.01953767      -0.07046200       0.04238136
H       14.36413054       4.92230332       8.40366393       0.02620193      -0.17514244       0.04050620      -0.04596676      -0.25161324      -0.20874798
H       14.03271998       4.96381316       6.13052434       0.26257459      -1.04915949      -0.02020932       0.05239857       0.13782644      -0.00157139
H       14.53038855       3.20489768       5.84809184      -0.06089010       0.88657043       0.95168496      -0.09828510      -0.10695201       0.00817819
H       15.15570670       1.99409372       8.09604810       0.05436780      -0.55735919      -0.13395138       0.01054749      -0.06223783      -0.05411931
H       15.01731426       2.85943668       9.63526453      -0.05235878       0.48415013      -0.59281377      -0.05249049       0.09301401      -0.01172964
C       10.06633343       1.75158240      12.34352234      -0.27984466       1.61996065      -0.06384234      -0.02625571      -0.05223699       0.49717506
C       14.58073576       3.95392348       7.85932383       0.03011650       0.02824540       0.16735099      -0.48100233       0.05117177       0.37500390
N       10.01619825       2.15124792      13.58913839      -0.26826545       1.25063235       0.89520019       0.10628696       0.24019376      -0.30320209
N       10.23632604       0.53704059      11.95549904       0.05041275      -1.31069187      -0.19130344      -0.55458957      -0.85467234      -0.05592243
N       14.39951993       4.01982941       6.52064231      -0.16340591      -0.11683126      -0.26172929      -0.52419113       0.09153694       0.30252092
N       15.01491024       2.87492830       8.58885107      -0.10267610       0.19629256      -0.30109178       0.55408432      -0.41472789       0.34135730
Pb      13.12249198      29.59028668       7.29886056       0.55158898       0.04407824       0.28834141       0.13349377      -0.84485654      -0.63097597
Pb       9.25686530      29.95700418       7.40870642      -0.11095715       0.05622304       0.11564559       1.71190792      -1.40360697       0.90544958
I       15.05764441      30.33060546       9.86678732       0.16784743       0.08789471      -0.43733994       0.72930513       3.17787691       2.10708046
I        9.59980453       5.12156130      10.18781123       0.05567336      -0.22645962      -0.30380427       0.48282500      -1.70451833       1.85463913
I       15.18499214       0.04340469      14.74143048      -0.08057629       0.53927554      -0.11682013       0.73698118      -0.60755646       0.48675331
I       10.05884784       5.82163673      14.53304739       0.24814694      -0.11557824      -0.20787263       1.58624107      -1.13990305      -1.51530935
I       13.97911671       3.79979840      11.83959432      -0.09407740      -0.08951571       0.05523780       0.60163093      -0.63422856       0.75503019
I       11.28526216       1.22113118       8.34947635      -0.23462503       0.11492574      -0.10427833      -0.83860382      -0.43165895      -0.17017333
H       10.65151704      10.46782509       8.12552914      -0.05988344      -0.52388833      -0.02126857       0.19952156       0.01476038      -0.02944123
H       10.82722549      10.61329417       5.83881988       0.31033797       0.70545736      -0.28943496       0.07622647       0.01701811       0.07850574
H       10.79063608       8.88232277       5.55182603       0.05377912      -0.38296100      -0.61514556      -0.23795258       0.01915134       0.18497866
H       10.54887919       7.41558784       7.63429905      -0.33432263      -0.54526413      -0.57701097      -0.02262553       0.24311647      -0.01086153
H       10.42796534       8.32094023       9.14097303      -0.26032525      -0.15488978       0.74067711       0.03879394      -0.18503703      -0.00354876
H       14.69260205      10.16667615      12.79978531      -0.07536776       0.23779000      -0.56954957      -0.00407898      -0.12104266      -0.18258779
H       14.39366372       9.82788105      10.43093117       0.20550733       0.57861825       0.15062309       0.10976659       0.04265323       0.03377435
H       14.65868281      11.53499091      10.07272028      -0.05729326       0.00646226       0.13476017       0.02365947       0.05333392       0.01177583
H       14.95904641      13.07117655      12.02937519      -0.06809055      -0.10961439       0.35585537       0.04467976      -0.06294256      -0.00609012
H        6.10640027      10.20456653      10.82180840       0.00575730      -0.71778577      -0.18151459       0.08319175       0.04964633      -0.12414502
C       10.65283007       9.51208494       7.51953073      -0.49585738      -1.21035165       0.16521495       0.08995313       0.06802192       0.15009877
C       14.72110346      11.01452603      12.08092849       0.04646975       0.99201088       0.07413815      -0.10604059       0.27078326       0.74204683
N       10.87454409       9.65455442       6.20812824      -0.37057198      -0.33286131       1.20675582      -0.59601335       0.71989519      -0.27967638
N       10.39095369       8.32487760       8.12201560       1.08618171       2.60587693      -0.48565612      -0.25003238       0.03496623       0.44684231
N       14.58516928      10.79326151      10.77788916      -0.06250711      -0.57069805       0.39113634      -0.50780470      -0.23640398      -0.18564694
N       14.86952861      12.22884962      12.62486518       0.03707184      -1.31228142      -0.15204704       0.69994133      -0.41463820      -0.32618678
Pb      12.04814895       6.41281313      11.70225770      -0.15833677       0.05382320       0.39184948      -1.27016703      -0.03649631      -3.39554123
Pb       8.05921055       6.94082383      12.29643011      -0.46349536      -0.27007073       0.01694887      -1.87367410      -2.86161443       1.65776398
I       13.95469179       7.58459782      14.06495888      -0.04905550       0.14337024       0.09791341       2.43193116       0.13287230      -1.52395070
I       11.06682503      13.54489731      14.12204946      -0.16650100      -0.34797956      -0.18348396       0.40966423       0.10077753       1.37209557
I       14.03350717       7.53291158       9.41747087      -0.12424075      -0.05443062       0.02897332       0.03801975       1.15225304       1.76440958
I       11.12999333      12.69624793       9.66931978      -0.26481074       0.02167695       0.02937227       0.54661861       0.33283931      -0.52658002