768
Lattice="40.227587415121015 -0.7682833808457515 1.3263590934115383 0.394859312395313 23.52400323722727 0.25591382290307674 -0.5366011814355014 -0.10491616676151522 18.726843227480614" Properties=species:S:1:pos:R:3:forces:R:3:momenta:R:3 energy=-3645.619549048651 stress="0.0 0.0 0.0 0.0 0.0 0.0 0.0 0.0 0.0" pbc="T T T"
H        7.12554957       1.24164563       4.20636659      -0.60162896       0.71232603      -0.01772393      -0.12147620      -0.04380734      -0.22357714
H       11.75285522      13.01219476       1.95649010      -0.34992430       0.44207704       0.26533452      -0.13943370       0.01817394       0.05840326
H        1.81751038       6.52873454       3.83889462       0.30570158      -0.11801707       0.10639067      -0.06894982      -0.17788972       0.14126043
H       17.33274254       6.49093215       1.91903305      -0.42280051      -0.50038815       0.18247203      -0.03331672       0.03551884       0.03730722
H        6.72287319       2.86376757       7.11901091       0.53057255       0.11482812       0.08816606      -0.16698685       0.00631889      -0.13305440
H       11.87345931      11.05019817       0.70359747       0.37325387       0.00303411       0.08027746      -0.17503414      -0.02332602       0.01438816
H        3.28053151       6.25955316       7.74553435      -0.08922089       1.99371117       1.08958422       0.02125680       0.11142657      -0.01799163
H       15.44463386       7.73660980       1.28693498       0.14509169       0.08356331      -0.47552766       0.01353275      -0.05910273       0.16886957
H        4.14784107       1.66716812       4.54707759       0.43822930       0.01451700      -0.00306792       0.01568074      -0.03790155      -0.00049416
H       13.66187686      10.89274459       1.13841700      -0.69866705      -0.18174557      -0.30435024       0.19232298       0.14891615      -0.11259181
H        4.09595051       7.77791673       8.32450137      -0.76876331      -0.22228757      -0.05704959       0.06947635       0.00011550      -0.06405756
H       14.27678146       6.46608828       1.61212992      -0.01907434      -0.13515003       0.23936660       0.10338144      -0.08632103       0.09890524
H        5.34084017       3.32458969       2.94575241      -0.23979996       0.42300614      -0.11511161       0.23377373       0.10700449       0.13510031
H       14.52057041      12.31379348       2.77147966       1.06933537      -0.53351772      -0.07785628      -0.06677076       0.02951601       0.12707288
H        4.68532506       7.72846363       3.83608800      -0.20966721      -0.26829904      -0.05742907      -0.03451988       0.03400535       0.01247235
H       15.29502906       4.63825875       3.28570598      -0.40144045      -0.40388204      -0.03315969      -0.10337225       0.06358905       0.12261265
H        7.12709677       3.18986015       2.89548960      -0.19502926      -0.12277325      -0.10752730      -0.03628530      -0.20574495       0.24328995
H       13.59558951      13.71369576       3.22899654       0.14454492      -0.10521378      -0.18560573      -0.00478088      -0.10507103       0.01678626
H        3.99264314       6.23956134       3.01324674       0.33133891       0.07518615      -0.13173103      -0.15851908      -0.09524539       0.19326538
H       14.89418853       7.57711716       5.50771638       0.19151324      -0.29544981       0.53155128      -0.01805124       0.09198183       0.05384829
C        6.17490674       1.82845794       4.06359176       1.43801016      -0.60867993      -0.27605920      -0.01252441       0.19507714      -0.41388584
C       12.68363362      12.45331606       1.97300320      -1.15552291      -0.98316353      -1.53935767       0.06929942       0.18799379      -0.21809488
C        2.64417884       7.21851328       4.18031689      -0.01016121       0.22438463      -0.21712435      -0.46518926      -0.30430286      -0.16506688
C       16.30653304       6.04547043       2.11826735       0.90546824       0.52240612       0.48079007      -0.14846506       0.81909704       0.27495038
N        5.13989349       1.33587083       4.69158546      -1.06847502       0.09572839      -0.12752091       0.30418318      -0.22647065      -0.57630534
N       12.72360071      11.37014824       1.21522228       0.42796228      -0.32471498       0.13205331      -0.49959654       0.11898646      -0.21265881
N        3.19744971       7.26462520       8.20174742       0.38582798      -1.65486853      -0.75376259      -0.35946978      -0.87437741      -0.20643804
N       15.28350855       6.75629022       1.61365096      -0.42358328      -0.16178063       0.15843452       0.71050098      -0.04936521      -0.07108908
N        6.20987541       2.87343224       3.25772022      -0.00483550      -0.30168752       0.36977233       0.29341429       0.08342243       0.10557629
N       13.70170495      12.88084346       2.61334121       0.28034249       1.64018229       1.62397457       0.18636754       0.53128292       0.14501328
N        3.88742343       7.07020192       3.63287151      -0.76514690       0.00801814       0.16382971       0.18773830      -0.12563674      -0.13781448
N       16.22730486       4.95890298       2.87437759       1.20219797       0.23781000       0.20735251       0.32821751       0.35071044       0.00202035
Pb       0.33525208       2.95541834       1.86262574       0.05693684       0.07209866      -0.11058994       1.68519584       0.32761770      -2.90240277
Pb      18.25197080      10.90173616       4.80492277       0.08694165       0.19516561      -0.05273060      -0.32599738       1.37609962      -0.93547284
Pb       8.14209747       8.75928714       1.94322979      -0.01436406       0.18500636      -0.47990532      -2.45026923      -1.03615638       0.14343352
Pb      10.28948699       5.16276941       4.31933100       0.25482797      -0.30420101      -0.19837033       2.27529410      -0.28621423      -0.81348186
I       39.69684765       4.34518674       5.39548229       0.00241571      -0.14620409       0.09200737       1.21445269       0.66642263      -0.45888368
I       39.46478798       8.36153079       2.80824045      -0.17911370      -0.01044884       0.32180338       0.18576577      -1.16573848      -1.68651522
I        8.82713203      10.67988970       4.08893542       0.40090500       0.20890783       0.39328495       1.67630309      -0.73244362      -1.01244131
I        9.29808751       3.12732722       1.79149646       0.27179432       0.17952629      -0.02405021       1.70152178      -0.86152568       0.02471176
I       17.50661914       1.22694552       2.11871169      -0.16285024      -0.08231793       0.17547577      -0.99721180      -0.15318027       1.13366269
I        1.30226885      12.52235062       4.01333621       0.05511443      -0.21271012       0.19203260       0.10914353       0.71146613       1.59552138
I       11.08918068       7.23717572       2.02430923       0.22905484       0.07870695      -0.08800896       2.87071049       3.20803778      -0.68978806
I        7.45697259       6.46056683       4.08734075      -0.27668356       0.06283628       0.12965746       0.48598064       0.50146905      -0.79480457
I        3.28259348       4.12147111       1.51494014       0.00854777      -0.02806889       0.05704676      -0.70214137      -0.78296941       1.04334027
I       15.32007469      10.09880535       4.45581423      -0.20142281      -0.38284308      -0.14405428      -1.47124419      -0.97175118       0.21710721
I        5.34144228      10.21278978       1.89840637      -0.10209100      -0.19071494      -0.06534483      -0.98915190      -1.18593119      -1.06313162
I       13.16057073       3.71888404       4.55929593       0.09972077      -0.03377340      -0.04611604       1.25324061       3.01306698       0.35452561
H        6.76393267       0.93359263       8.48669333       0.65647315      -0.27399972       0.05002131       0.06957138       0.03954369      -0.05628444
H       11.34849611      12.96674918       6.26116807       0.61041663       0.23585980       0.10652446       0.13271833      -0.13968376      -0.03278253
H        1.18197323       6.93057428       8.74683802       0.44662181       0.17772049      -0.29598064       0.19566793      -0.01050309      -0.09315416
H       16.82611065       6.63984922       6.57023968      -0.48487982      -0.36875599      -0.34365972       0.02401011      -0.00576155      -0.23693246
H        5.22324066       0.40290308       5.12511143      -0.06531490      -0.17081118       0.25876433      -0.13996753      -0.15071482       0.11766713
H       11.40762978      11.06831098       4.94931907      -0.24302138       0.02569029       0.09503734      -0.14553418       0.07546499       0.04264608
H        1.37750550       8.33380066       5.47538226       0.22491402      -0.19948610      -0.26482671      -0.15696752      -0.01049531       0.12891441
H       16.66751113       4.60888778       7.66759047       0.38497201      -0.16888357       0.30200965      -0.29557183       0.07457969       0.09090158
H        5.07099670       3.30730170       7.78080449       0.07265798       0.17034116      -0.25466735       0.21703663       0.02249242       0.09063279
H       13.07119809      10.63459258       5.52292195      -0.74066372       0.37841433      -0.10236004      -0.16557341       0.02407103      -0.02990040
H        3.11964280       8.80885271       5.36803529      -0.77386988      -0.17799909       0.04431588       0.05320552      -0.04671583      -0.07535826
H       14.91256529       4.54696001       7.44905138      -0.30452453      -0.58367801       0.27099885       0.12914765      -0.17022198       0.21756807
H        4.06022265       1.84539835       9.69430580      -0.03914891       0.43548708      -0.35523382      -0.05157498      -0.13326754      -0.10274713
H       14.12036582      12.11987189       7.39118850       0.04223021      -0.44287099      -0.45915991      -0.08004974       0.10406385      -0.23504534
H        2.69696201       9.29048525       9.82369947       0.05968055       0.11151248      -0.10647144      -0.09000949       0.06487059      -0.20539134
H       13.83891512       6.31471761       6.04820661      -0.33328953      -0.41937285       0.15721557      -0.04240070       0.03376879       0.02170865
H        5.01689082       0.41856684       9.85904184       0.02186066      -1.13150811       0.80610223      -0.04527160      -0.04200125      -0.13185263
H       13.16781434      13.58281680       7.63806068      -0.02572390      -0.71943376      -0.33369809      -0.00712658       0.06806827       0.15156771
H        0.98732663       8.92716368       9.93068287      -0.14624977      -0.07943522       0.02830403      -0.08916952      -0.12529317       0.07443603
H       17.13132943       4.56586363       3.29146014      -1.06951343       0.35156027      -0.65968904      -0.01115272       0.19630132       0.10505186
C        5.91612989       1.63435198       8.58490519       0.52804593       0.76979272      -1.19727004      -0.18783420      -0.62864536      -0.24580142
C       12.27371961      12.34772613       6.29494179      -0.66887773       0.03872082       0.09423816      -0.03541961       0.18797552      -0.25130211
C        2.06876867       7.60931280       8.80012692      -0.11823616       0.31756895       0.46872652      -0.28153541       0.71790244       0.30884251
C       15.85283494       6.09119135       6.59269740      -0.27226593       2.33858165      -0.58913805       0.42370211      -0.13638852       0.60577769
N        5.92749064       2.69099827       7.78986793      -0.68081086      -0.22260516       0.53058406       0.15091584      -0.34330940       0.16720242
N       12.22428500      11.28855592       5.53235718       1.36622754      -1.00511956      -0.13230374      -0.72222935       0.34015660       0.37475089
N        2.32851338       8.18260558       5.07167194       0.90562003       0.60951115       0.21327557      -0.10411844      -0.40151963       0.15928413
N       15.81175256       4.99078063       7.26382833      -0.18474987      -0.75224787       0.11356282       0.04872714       0.65021757      -0.10369191
N        4.93904033       1.30570722       9.42218631      -0.99419335       0.11649200       0.46331729      -0.49781477      -0.33435557      -0.43018393
N       13.27137276      12.68125265       7.10613668      -0.45165012       1.41770767       0.81997290       0.16326013      -0.19712641       0.00196262
N        1.89996485       8.72080013       9.51778124       0.13381559      -0.60509841      -0.29625129      -1.31430251       0.22839541      -0.07697570
N       14.76992048       6.71948282       6.08793593       1.21220683       0.40995944      -0.48847334       0.48111766      -0.71701752      -0.74488115
Pb       0.35613966       2.98602999       6.46982557      -0.02143217       0.17688833      -0.04567797       0.00952475       0.64292176       1.27523063
Pb      17.98878698      10.69214993       9.48199161       0.10021589       0.19391991      -0.05985239       0.14039730      -1.86811685       0.60538334
Pb       8.17276306       8.58846665       6.60549507       0.10520461      -0.06942321       0.01165237      -0.02763095       0.77740461      -2.35054025
Pb      10.30436788       5.11569423       8.86907039      -0.18692959       0.12258277       0.15653698      -0.70044374       1.23004941      -0.93807730
I       39.39954949       4.35111341      10.07553288       0.21120998      -0.30761696       0.11273586       0.40164611      -1.68406556      -1.41474855
I       39.41595288       8.42223520       7.85178615      -0.12016149      -0.03816844      -0.13045748      -0.23128919      -0.97722306       1.86312630
I        9.06128683      10.84383724       8.72493342      -0.00560231      -0.04299402       0.00247289       1.26676790       0.47043680      -0.29521887
I        9.38193003       3.05645664       6.66608604      -0.13158811      -0.06438235      -0.13745307       0.68263463       0.46667648       0.20024417
I       17.13008034       1.15001198       6.98704738       0.08204750      -0.21562548      -0.06247386      -1.35331402      -1.21688176      -0.81664388
I        1.03283740      12.57365457       8.78956693       0.08207432       0.09411249      -0.13637512      -0.93130667       0.67563025       0.73146051
I       11.37627458       7.33148247       6.53698208      -0.19346691      -0.13065399       0.03004546       0.06130254       1.93354739       3.00908523
I        7.05385609       6.42817522       8.90810927       0.12809908       0.26267189      -0.16144848       1.35852687      -0.15008912      -0.89111625
I        3.21564260       4.34621394       6.21844887      -0.15230974      -0.11917091      -0.00466783       0.61576960       0.28982315       1.15799708
I       15.10851297       9.73531262       8.59621609      -0.13091592       0.03927111       0.09214985       1.25890580       2.11629271      -0.12719486
I        5.43140465       9.90148613       6.31964582      -0.30030066      -0.10955081       0.19650821       0.23625902      -0.28965747      -0.46527571
I       12.98890945       3.71582894       9.28259385       0.16102571      -0.05940911      -0.00949735       1.43114292      -0.10854999       0.57055615
H        6.67512235       0.73316226      13.54249075      -0.40411086       0.11475374       0.07297183       0.13544146       0.22649887       0.28549473
H       10.98660888      12.45047324      11.75146003       0.87822620      -0.29198084       0.10452412      -0.20557133       0.10611153      -0.13324094
H        1.37285812       6.88046553      13.80981481       0.34327611      -0.19901104      -0.02121074       0.03975102       0.12192864      -0.05265088
H       16.63368923       7.22447970      11.31602721       0.73939571      -0.17390970       0.29560842       0.02536692       0.13633452      -0.04325600
H        6.98113433       3.19947187      16.62467527      -0.15021774      -0.10583325       0.21611275       0.06650845       0.11005635       0.00919272
H       11.46322753      10.88477673      10.04299360      -0.00486872      -0.09801083      -0.20289007       0.17002811      -0.17807282      -0.13902114
H        3.01284533       6.12741511      17.38815967       0.02858366      -0.46591951      -0.69500978      -0.00274905      -0.05387925      -0.03279768
H       14.85569368       7.65104443       9.95138513       0.52703036       1.02343812      -0.39604793       0.08140633       0.12629641       0.03011426
H        3.80565230       1.63843112      14.07622631       0.67760543      -0.48517610       0.19213201      -0.00967475       0.11902150       0.06507213
H       13.19572595      10.79592811      10.22847590       0.87028541      -0.53197377       0.01035432       0.17574760       0.21786222      -0.08083481
H        3.92455070       7.70419525      17.65301788      -1.30875401      -1.13272167      -0.15595023      -0.01613015       0.10528236      -0.00169511
H       14.02136230       6.23561791      10.19352767      -0.94565083      -1.10379306       0.34342170      -0.00241306       0.06785621      -0.02493762
H        5.03180032       2.98895478      12.46364387       0.69754204       0.17191123      -0.05908033       0.01936544       0.19013839       0.03695422
H       13.97912137      12.15360334      12.40648318       0.54417183      -0.61016627      -0.04078215      -0.17367800       0.00635043      -0.00146798
H        4.30313862       7.40241834      13.27252383       0.45478717       0.36943189       0.26218464      -0.02753329       0.01716650      -0.08155771
H       15.08161103       4.67693089      11.87914684      -0.80601920      -0.63770866       0.43039946      -0.14339003       0.05480289      -0.10976476
H        6.80079276       2.59790644      12.27886978       0.21833706       0.64072318      -0.43833363       0.00635385      -0.13829058      -0.02217622
H       12.78147872      13.27476196      13.11782003       0.03431709       0.10248329       0.17915101      -0.05435797      -0.15564861       0.06680161
H        3.37865755       5.91891267      12.94140559       0.05837424       1.11554555       0.56214633      -0.08272344       0.05040965      -0.02943736
H       15.02966146       7.49195271      15.26322323      -0.38261321       0.35027882      -0.60348741       0.14950506       0.09841818      -0.00457674
C        5.78027189       1.38531265      13.46168659      -0.45073244      -0.16318436       0.61904417       0.41654066      -0.40277865      -0.11919023
C       12.05721809      12.04256197      11.60754042       0.18355157       1.10165851       1.11025277       0.26412231      -0.79121729      -0.12739886
C        2.33420086       7.42827252      13.85544527      -0.74688166       2.12424798       1.01187322       0.15354291       0.35501428      -0.11452027
C       15.83568552       6.44919784      11.24990450       0.61885110      -0.09621969       0.13598359       0.40137050      -0.11471564      -0.52347051
N        4.67498084       1.06653981      14.13472342       0.16868135       0.53129402      -0.65972811       0.76287218      -1.08798999      -0.63166842
N       12.29808526      11.18144793      10.55996525      -1.40228276      -0.71045282      -0.92189061       0.29777020       0.18513282      -0.97565464
N        3.01899889       7.14199721      17.65492280       1.62409025       2.16623206       0.64680431      -0.17904565       0.33786277       0.48023230
N       14.85839114       6.77251943      10.43261246      -0.74578868       0.24453997      -0.26158421      -0.39992963       0.09109513       0.66734722
N        5.89753557       2.48024383      12.74681719      -0.75636645      -0.39581599       0.02796541      -0.52894362      -0.78094336       0.19076590
N       12.97318275      12.42444151      12.53837970      -1.07523162       0.99633263      -0.44343676      -0.43875932       0.47161068       0.04360570
N        3.42659068       6.89598371      13.37575045      -0.28600300      -2.04777709      -1.10737323       0.51631471       0.38968124       0.19600795
N       15.88585549       5.32909945      11.93367352       0.44680700       0.33516980      -0.49141260      -0.86490363       0.10931716      -0.01758915
Pb       0.26320548       3.05841031      11.15393005      -0.26987386       0.03650505       0.02024482      -0.07055318       0.01238366      -1.58348174
Pb      17.84345716      10.65224234      14.14492430       0.19111297       0.10110191       0.01580642      -0.57776952      -1.85026107      -1.14966190
Pb       7.67243555       8.92737736      11.05738986       0.41402342      -0.16899861      -0.02361206       0.99872770       0.20816131       1.94672378
Pb      10.43128013       5.43751704      13.41676681       0.08946634      -0.31436241      -0.01178362      -0.26649003       3.30003915       2.02133895
I       39.56825288       4.40669672      14.61874290      -0.25181634      -0.10491262       0.01687115       0.24531179      -0.31450014      -0.20165120
I       38.66864421       8.42546372      12.33869764       0.12429501       0.26602372       0.01928413       1.58760751      -0.75203305      -1.19370815
I        9.11244396      10.94657278      13.23274469      -0.00578911       0.01471969       0.10447551       1.06397876      -1.98293123      -1.20713918
I        9.14132069       3.20012660      11.24137444       0.11988590       0.16688352       0.09106575      -0.83925012       0.35861932      -0.77046376
I       16.99903689       1.18400226      11.55596188      -0.15955957       0.02226690      -0.05072902       0.86949672       0.68972504       0.97855430
I        0.84012565      12.47736615      13.53447939      -0.03013712       0.07676052      -0.25824254      -0.74074246      -0.24510250      -0.70987564
I       11.00966618       7.55928128      11.04253463      -0.09068883      -0.09188854       0.02721033       1.83009018       2.36670649       1.56579952
I        7.42903727       6.79456360      13.49034528      -0.22464073       0.08636560       0.17400556       0.97013585       0.44735097       1.82460668
I        3.11801115       4.26005660      10.88684684       0.24599095      -0.09516001       0.08155019      -2.14205618       0.27414593       0.98561850
I       15.02395334       9.52559187      13.72855199      -0.05585345      -0.04302108       0.00894371      -0.83978493      -0.42216593       0.53737259
I        4.79941233       9.99289859      11.16368522       0.01360690      -0.02179872       0.14708776      -1.49128214       1.06225818      -1.70786134
I       13.12966548       3.81216475      13.71019326      -0.11803687       0.04773698      -0.02526869       0.18583003      -0.04250926      -1.06425407
H        6.83925455       1.29791216      17.90374526       0.68469187      -0.81853960      -0.02421519       0.09797829       0.04032443       0.04253349
H       11.36376699      13.07278164      15.86541506       0.06373696      -0.42627632      -0.01695360      -0.01172368      -0.14102526       0.13364438
H        1.02085140       7.16963870      18.01785882      -0.94173785      -0.78007577      -0.05033672      -0.08187027       0.11363942      -0.10902379
H       17.06953648       6.37765830      15.76197607       0.26209951       0.39245622       0.19430912       0.04343570       0.00918601      -0.27541163
H        4.66179871       0.15584680      14.60055173      -0.22776379      -0.19779535       0.23532417      -0.11643201      -0.03372245       0.04069992
H       11.29220737      10.86430270      14.85829750       0.46497503       0.24113004       0.17623996      -0.05922868       0.06038514      -0.03456670
H        1.39614912       9.21066381      14.59284921      -1.12492834      -0.06596686       0.56228321       0.12543718      -0.10815496      -0.05798436
H       16.81518775       4.64240861      17.51934530      -0.73061265       0.39547797      -0.59067458      -0.04294391      -0.08845796      -0.04564999
H        5.29635032       3.59131228      16.77481426      -0.64107774      -0.16795676      -0.01075735      -0.02761808       0.19131070      -0.04775310
H       12.87748180      10.37618865      15.57065046       0.66622251      -0.60578318      -0.17482286      -0.08542834       0.04922339      -0.17354204
H        3.10925036       9.30057722      14.43730194       0.52880664       0.29202941       0.22468940       0.29960904       0.09443601       0.00352269
H       14.95619955       4.80879881      17.62549365      -0.07722496      -0.05080300      -0.09728534      -0.07524537      -0.20502969      -0.19320668
H        3.91194415       1.95212637      18.02759912       0.35694943      -0.35915490       0.04064641      -0.09359972       0.03327164      -0.08171650
H       13.86082906      11.71551759      17.44577355      -0.38561812       0.25214016       0.01220144      -0.13528011      -0.00436722       0.01519508
H        2.58699890       9.56577688      18.85247833      -0.13334426      -0.38283590       0.06698730      -0.00873999      -0.07067230      -0.08276975
H       13.85609579       6.41004525      16.16568238       0.06371789      -0.06817371       0.02754017       0.00659598      -0.11722567      -0.08980618
H        4.74920442       0.55189127      18.75762513      -0.19222549       0.05423837      -0.14706738      -0.18428798       0.14036147       0.05979122
H       13.11570601      13.47395015      17.41880619       0.02443076      -0.44383959      -0.16864958       0.02882655      -0.02324052       0.14862701
H        0.93329548       9.14080482      19.11182124      -1.59632365       0.50985782       0.52166043      -0.01300733       0.03618988      -0.03975841
H       16.70025498       5.01957875      12.47446578       0.23162836       0.34384714       0.05539172      -0.17357625      -0.04570988      -0.07930113
C        5.93533482       1.82048880      17.66532293      -1.91673471       0.88960265       0.48560239      -0.00743557      -0.49546182      -0.29024354
C       12.14099013      12.21006113      16.13114309       0.64156173       1.51888032       0.85913662      -0.32853746       0.02281011       0.74868231
C        1.91696815       7.73036579      18.10273722       0.42698351       0.13668352       0.54994108       0.14329374      -0.26576682      -0.37094450
C       16.01832182       6.08268660      16.22517920      -0.60203929      -2.63028028       0.84230520       0.62779944      -0.42583534      -0.70606679
N        6.05318927       2.94906134      17.00876498       1.31997573       0.21838851      -0.38443712      -0.47834843      -0.85113863      -0.63790324
N       12.10059544      11.06569380      15.51015198      -1.35153515      -0.48540244      -0.55811180      -0.62388453       0.08039671      -0.55452713
N        2.27893702       8.68933356      14.38781292       0.76844592      -1.46080198      -1.63071758       0.71773770      -0.35596968      -0.28783562
N       15.92261990       5.06410259      17.12357443       1.13241636       0.87955465       0.06818444      -0.77647080      -0.67965734      -1.30504980
N        4.75791688       1.36348319      18.10348082       0.44908780       0.28034146      -0.01872677       0.81071473      -0.38125868      -0.06420688
N       13.11210049      12.47675174      17.06055456      -0.17722921       0.19100294      -0.07859453      -0.51325515       0.02571222       1.23516940
N        1.79445390       8.90054623      18.70672275       2.25575201       0.00847527      -0.94959867       0.32040118       0.14180293       0.36349368
N       14.89911058       6.62173080      15.77477883       0.29019295       0.65615078       0.12890578      -0.30259390       0.74103453      -0.56475673
Pb      -0.10068081       2.89618071      15.82691618      -0.13247130       0.38315415      -0.00961032      -1.59690166      -1.61212622       0.17272755
Pb      17.99005159      10.67862647      18.64818386       0.20441531       0.32224374       0.14433810       1.13938870      -3.16475751      -1.98161334
Pb       8.18126141       9.07321218      15.88652769      -0.02765926       0.08821293      -0.11218688       0.22825988       2.43068801       0.03479148
Pb       9.84542188       5.07948901      18.18484885       0.17053068      -0.02445589       0.14323436       1.03693568       0.39320095       0.45239806
I       39.27147935       4.27618481      19.63776064      -0.12182689      -0.10710073      -0.12476904       2.73273171       0.11366717       0.59951599
I       39.19677173       8.70688819      16.98868113      -0.21020151      -0.13602875      -0.00276807       2.01034840       2.82980271       0.47634004
I        8.93248238      10.95957533      18.53843105      -0.17894794      -0.21716093      -0.11226534       1.73878173       2.03767539       2.12276215
I        9.31532636       3.16271457      15.68073954      -0.03483324       0.13961251      -0.05517805      -1.57100480       2.03492033       0.88766100
I       16.88063064       1.10015384      16.32315397       0.07677771       0.11283439      -0.25667421       0.85857798       1.14832679       1.12671637
I        0.96774099      12.51717586      18.00585463       0.01755334      -0.10590059       0.09960558      -0.30033264      -0.65598484       0.84105461
I       11.12103579       7.37625637      16.10612415       0.03626423      -0.08544225      -0.09780630       1.55371890       0.77611214       2.06627128
I        7.00143556       6.87664584      17.83825584      -0.09234758      -0.28259529       0.03750639       2.11552975      -2.67544796       0.32802745
I        2.86231064       3.89778262      15.90575137       0.02652399       0.14616392      -0.13604015      -2.03371353      -0.99944644       1.97722885
I       15.17933424       9.67257102      18.30832441      -0.46334793      -0.09238118      -0.00020116       0.44235943      -3.03797597       0.09089278