768
Lattice="40.227587415121015 -0.7682833808457515 1.3263590934115383 0.394859312395313 23.52400323722727 0.25591382290307674 -0.5366011814355014 -0.10491616676151522 18.726843227480614" Properties=species:S:1:pos:R:3:forces:R:3:momenta:R:3 energy=-3645.8695618896727 stress="0.0 0.0 0.0 0.0 0.0 0.0 0.0 0.0 0.0" pbc="T T T"
H        6.57025727       0.69297573       3.93686177      -0.13899703       0.62141211       0.01310701       0.10970889       0.02128466      -0.09882535
H       11.61265641      13.05946328       2.15659630      -0.27210408       0.22055996       0.01532882       0.00470966       0.03652373      -0.12588358
H        1.07378526       7.11660028       3.85332606      -0.92081471      -0.63812136       0.08309003      -0.05137141      -0.06991383      -0.20401439
H       17.38804368       6.59946454       2.68110176       0.88625031       0.99899506      -0.21545148       0.02084098      -0.02619048       0.08536843
H        6.90313196       3.05739261       7.96198260      -0.59045681      -0.21149934       0.24610925      -0.03287531       0.09772737      -0.09009900
H       11.48204991      11.19641723       0.67402357      -1.40473242      -0.01752354      -0.67006167      -0.22857794      -0.01021721      -0.05397563
H        3.33955128       6.17046427       7.92790166      -0.28710226       0.44525219       0.29988616      -0.08864658       0.09320737      -0.12698649
H       15.56403892       7.67232276       1.71333071      -0.15144191       0.32341306      -0.42920520      -0.10707150      -0.26183158      -0.09425263
H        3.68648934       1.58181873       4.22269600       0.58446622      -0.21239394       0.03438709      -0.15108820       0.15974406       0.01393168
H       13.12561608      10.81990852       0.80669986       0.28617050      -0.10149266       0.20978811       0.21742444       0.06620760      -0.13414675
H        4.18043234       7.54197275       8.59144367      -0.48081632       0.02069491       0.16817118      -0.00620717       0.04337399       0.02286545
H       14.47028693       6.32151579       2.06710560       0.27000571       0.24668582       0.03731950      -0.12524282       0.02701526      -0.07009951
H        5.12292803       3.05756145       2.66281834      -0.47487693       0.38653748      -0.35424416       0.05965084       0.08171368      -0.04746720
H       14.34506100      11.83869662       2.69057473      -0.21537550       0.08631611       0.12280726       0.05405934      -0.13036657      -0.27279803
H        3.88101185       7.68568090       2.94528773       0.31499384       0.66065969       0.59072113      -0.16261733      -0.17048721       0.27023886
H       15.60377535       4.43977664       3.54686021      -0.53504744      -0.07471629      -0.00948728      -0.01245450       0.11862608       0.09006837
H        6.84091473       2.52561155       2.56016650       0.04251930       0.61182624      -0.38650998      -0.06467649      -0.06069883       0.10646898
H       13.69480481      13.34566937       3.32498916      -0.27673251       0.68151384       0.46577493      -0.06351628      -0.00031606      -0.03023376
H        2.93887181       6.36239639       2.53869215      -0.57676784      -0.09340833       0.12662230       0.07732788       0.11294400       0.20881527
H       15.37524167       7.92123266       6.04174581      -0.23208923       0.86609234      -0.82899752      -0.08129807      -0.07132336       0.15015421
C        5.72589153       1.39982855       3.75905625      -0.42755843       0.52979341      -0.90204273      -0.17371976       0.63475246       0.01254175
C       12.44570731      12.37463496       2.00556466       0.84482315      -0.32522477       0.60417645      -0.23750644      -0.33647185      -0.39204682
C        2.01107189       7.62014763       3.91930196       0.12456582       0.51781466       0.22146134      -0.07999457       0.58326484      -0.44378761
C       16.42943237       6.13532134       2.70669711       0.06535578      -1.84005422       1.43856956       0.05417637       1.14760186       0.19069435
N        4.59183347       1.08989084       4.33789710      -0.16346357      -0.62510101       0.94624385      -0.51517398       0.37038716       0.00300764
N       12.33744570      11.40865849       1.10669486       0.70210803      -0.14263136       0.01141676       0.45545334       0.56735706       0.41934519
N        3.27928961       7.05018058       8.48874433       1.16678200      -0.80749823      -1.00391684       0.33573358      -0.37008301       0.39197203
N       15.41117269       6.74958068       2.13489383      -0.38034780      -0.80036574       0.16493119      -0.50995387      -0.39068449       0.23545406
N        5.86634659       2.40423739       2.87426564       1.17972623      -1.58493759       1.08497369       0.38516624      -0.77471130       0.59610616
N       13.53711261      12.48662016       2.80308450       0.22290618      -0.34895845      -0.80375623       0.40810025       0.79439074      -0.19375162
N        2.98971738       7.18461738       3.17160307       1.11087057      -1.03832618      -1.28202954       0.20461900       0.07957513      -0.02666683
N       16.45068279       4.96674267       3.36717812      -0.43554586       0.86765648      -0.54645862       0.18168833       0.08086756       0.90252300
Pb       0.15939531       3.23225178       1.44892887       0.19680964      -0.12938259      -0.11756521       0.04259502      -0.41496599       1.33812142
Pb      18.27874935      11.09553397       4.57882486      -0.51310194      -0.04361211      -0.40120482       1.42360859      -1.25608977      -0.46071804
Pb       8.09444024       8.90817071       2.06438616       0.03747602      -0.19117992      -0.07211084       0.79068205      -0.87308543       0.28567226
Pb      10.37434943       5.44812592       4.55224112      -0.14879519      -0.08689430      -0.22395084      -0.46135711      -1.33934760       0.07130642
I       39.31015928       4.42226636       5.10507948      -0.07733336      -0.19059961       0.01465073      -0.13405221       1.74724157       0.06165845
I       39.19479440       8.32976015       2.90552010      -0.07259482       0.03366892       0.02876469      -1.01015821      -1.02807029      -0.92898929
I        9.15329660      10.82335863       4.37132103      -0.13949986       0.00846965       0.15247497      -1.34953533      -0.99557023      -0.90906010
I        9.51429540       3.25412264       2.12482532      -0.06354490      -0.03269854       0.19050989       1.09533340      -0.74571646      -1.27281704
I       17.38104721       1.50592525       2.41929785      -0.13509811      -0.03241658      -0.19650413      -0.90747144       0.80040149      -0.73881160
I        1.29450129      12.54936081       3.74532917      -0.09159002       0.05604608      -0.03323782       0.00009759      -0.42082481      -0.61680306
I       11.29813941       7.40714249       2.11225429      -0.07044808       0.18026599      -0.08325463      -1.30283845      -0.39837948      -1.98452774
I        7.15026120       6.70869376       4.37304871       0.21442335       0.04797799      -0.00101168      -0.68309638      -0.82904544      -1.57567679
I        3.12762299       4.31280070       1.22578114      -0.09138282      -0.11055842       0.00718325       0.13446531       0.86081988       0.55836097
I       15.15917009      10.03765509       4.46800191       0.37676419       0.04071276       0.05127216       1.46913265       0.44182475      -0.29663605
I        5.09094490       9.94325535       1.72170962       0.05977113       0.03499365       0.15993101       0.50176984      -1.86829419      -0.15408291
I       13.17208625       4.04019737       4.70361237       0.08785882      -0.02692577       0.13966715      -1.45655029      -0.83103209      -1.80831656
H        6.72115942       0.99409170       9.15993513      -0.58356571       0.76092963      -0.09075310       0.18760176       0.14102043       0.10978932
H       11.45246558      13.12575015       6.99322535      -0.27500433       0.06702521       0.07384017      -0.04801118       0.05465831      -0.05085928
H        1.18669023       6.94626006       8.76362025       0.44540408      -0.28471567      -0.36708672      -0.12073740      -0.16736996       0.04448118
H       17.08923670       6.83684414       7.12129169      -0.10483718       0.13966466       0.00821568      -0.04693527       0.08910985      -0.03778722
H        4.67596480       0.31995226       5.08650615      -0.47507474       0.40730491      -0.41468202      -0.03887555       0.38620069      -0.02867445
H       11.23445360      11.38954206       5.61372586       0.66525081      -0.32485470       0.23535782      -0.03671185      -0.08600925      -0.03898141
H        1.35030654       9.01183142       5.37086488       0.56883613      -0.30313732      -0.51990412      -0.15880359      -0.12891059       0.02677398
H       16.89696958       4.46630548       7.77672417       0.19171153       0.29817839      -0.04599768      -0.18769297       0.10063241      -0.00514724
H        5.15058694       3.26250620       7.84237729      -0.02555318      -0.14014398       0.44548159       0.10146367       0.10681586       0.08617927
H       12.89364702      10.75961814       5.83827077       0.67694023       0.00196693      -0.10278766      -0.00436950      -0.05833038      -0.01076054
H        3.10295202       9.08400673       4.76915442      -0.00371802       0.40991994       0.43676405      -0.02877860       0.09481301      -0.10037111
H       15.24174523       4.21395014       7.22352039       0.94561012       1.01413917      -0.43077225      -0.07029812       0.09971116      -0.04168650
H        3.79709271       1.81760952       9.18051885       0.73593140      -0.68206570       0.20451354       0.18115237      -0.15972875      -0.10802424
H       14.28908987      12.30132554       7.47465624      -0.42507520       0.16908327      -0.27180950      -0.11328212       0.11782636       0.04559811
H        2.76567266       9.17858626       9.98435726      -0.78909644      -0.76880894      -0.39498500       0.09199961       0.11849032      -0.11664550
H       14.27237306       6.38294713       5.84181008       0.39984569       0.03226270       0.12983441      -0.01629454      -0.06723567      -0.00006120
H        4.53492325       0.28977804       9.84619194       0.09692826       0.96460874      -0.50700153      -0.03125028       0.06664550      -0.10488405
H       13.47416118      13.75103123       8.01870288      -0.36044294      -0.05822524      -0.07615999      -0.01530576       0.17025195      -0.04814605
H        1.03344922       8.86059621      10.02073221       0.14000580      -0.37100217      -0.40525591      -0.07194272       0.00202086      -0.24375889
H       17.26202343       4.70401984       3.98998961      -0.04234316       0.31553273      -0.68193911      -0.05216756       0.21283889      -0.09221315
C        5.83004983       1.65114248       8.94766358       0.18937082      -1.44527107       0.63620436      -0.02789925       0.19134330       0.01193302
C       12.31440689      12.46984741       6.88162230       1.21640595       1.54516749       0.11171533       0.23809162      -0.01394794       0.30132647
C        2.12944357       7.49681924       8.92192008      -1.20657499       0.14002883       0.68454925       0.75667373      -0.17802810       0.29285641
C       16.14443071       6.23405487       6.87816199       0.12880287      -1.47299748       0.54336976       0.29001768      -0.38536150      -0.38075395
N        5.96543043       2.78641917       8.33302126       1.40141666       1.29359261      -1.66092648       0.45729715      -0.27421918       0.23064151
N       12.18914588      11.46830851       6.06301606      -1.85796378      -0.75768257      -0.42504332      -0.06078335      -0.49642017      -0.35940387
N        2.13989363       8.65937793       4.72824509      -0.56977363       0.56819094       0.48058403       0.13035692       0.01789989      -0.45353618
N       16.10369962       4.88063128       7.25659923      -1.41224403      -0.47620616       0.13419055      -0.49675048      -0.20780418       0.13854276
N        4.64069439       1.20338543       9.32206341      -1.13506260      -0.62104578       0.63448887      -0.24786466       0.57984264       0.61108558
N       13.44324245      12.89705926       7.42717475       0.43483148      -0.84020086       0.41683646       1.18545139      -0.34674079       0.73901641
N        1.95284764       8.58379215       9.63326003       0.91233186       1.63019573       0.96813839      -0.28258604      -0.60577658       0.31025148
N       15.19733161       6.85245423       6.18655753      -0.09955944      -0.52153525       0.65447527      -0.16701251      -0.35947900      -0.22225265
Pb       0.08405934       3.12677997       6.26587382      -0.05718880       0.10349452      -0.05174026       1.85202427       1.37986695       0.89707645
Pb      18.09411534      11.03278007       9.22884088       0.16053429       0.12952255       0.38951646      -2.65302864       2.01789639      -2.69727747
Pb       8.12839751       8.65044936       6.77704312       0.20636205       0.11112783      -0.23678900      -0.29162549      -0.36759083       1.34342909
Pb      10.13259427       4.88510180       9.02014923       0.08220061      -0.15320359      -0.00490159      -0.20909940       1.16000817       2.55558558
I       39.20564824       4.45856172      10.09227891       0.10580755      -0.26128397      -0.28019509      -1.96262766       0.37137731       1.32323144
I       38.97696958       8.38913910       7.39382569       0.06535985       0.19324302       0.14988929      -2.17886866      -1.98961556       0.21831882
I        8.91843750      10.69366825       9.34191501      -0.05871213      -0.07516053      -0.17588957      -0.31106839      -1.18256572       0.18341553
I        9.19611499       3.15413795       6.40382105      -0.08156836      -0.14219424       0.26667672      -0.15210250      -1.29955603       0.27664452
I       17.20343009       1.12687653       6.76722506      -0.20198828       0.20946916       0.16689975      -0.64209386      -0.54356285       1.64634077
I        0.98497594      12.44574584       8.74920946      -0.00576629      -0.03520602      -0.27420966      -0.56429331      -2.00530209      -1.10005382
I       11.49649868       7.24854346       7.04729147      -0.33961138       0.06571484      -0.09205825      -0.06723706      -1.36823046      -0.40503621
I        7.20782137       6.44311152       8.89273489      -0.22642313       0.01347191       0.00434059       0.85803954       1.65822667       0.07034391
I        3.04827756       4.05453383       6.25308919       0.07622913       0.11560649       0.05368506      -1.60854791       0.85140263      -0.64987137
I       15.25787833       9.93210003       9.01311098      -0.16385119       0.06855504      -0.02899038      -1.09791841      -1.78029520      -1.12023103
I        5.26771650       9.67144781       6.34707644      -0.07710793       0.22262560       0.12435898       0.41863430       1.39720215      -0.03781981
I       12.90832394       3.68014780       9.37651384       0.49565925      -0.03731888      -0.08228997       2.04386829      -0.89360418      -0.66289663
H        6.78690214       1.43040205      13.79299958       0.19013251      -0.11747584       0.15891017      -0.12195964       0.04855356       0.30290877
H       11.77285261      13.05845405      11.47846394       0.27041694      -0.18022519      -0.15967204       0.13448032      -0.10390165       0.01953244
H        0.99782375       7.03956356      12.88521710      -1.18627689      -0.61885769      -0.05743881      -0.03692077       0.02873287      -0.04279130
H       16.67263059       7.07014337      11.71173057       0.09877265       0.15293565      -0.03922814       0.07434625      -0.17624617       0.01412165
H        6.42593458       3.33699987      17.27033847       0.40993239       0.58613605      -0.24738213       0.15891695      -0.14957658      -0.13555578
H       11.09908656      11.03951542      10.42916842       0.24959151      -0.32677527       0.00021256      -0.21750996       0.00730016      -0.06878718
H        2.64880916       5.90166863      17.08008993       0.02966063       0.10506194      -0.10543182       0.04499302      -0.18378139      -0.05020070
H       14.94608298       7.76136974      10.24159958      -0.04800071       1.05577514      -0.58454460      -0.17756198       0.13560653      -0.09945240
H        3.86440420       1.81121424      14.41460280       0.43857819      -0.33994248       0.13948320       0.00993499       0.06679276      -0.00387266
H       12.80959613      10.32888638      10.49491920      -0.48357914       0.19695785      -0.04918402       0.22630144       0.10160301       0.02644991
H        3.49841281       7.41411991      17.53735896       1.13107561       0.02927076      -0.24322849      -0.00702953      -0.00856671       0.08754148
H       13.93899588       6.33300816      10.57709229       0.33703906       0.52653917      -0.09658075       0.02464315       0.06970417       0.01524234
H        4.79955933       3.50343686      12.91482874       0.43006891       0.21270063       0.01344261      -0.09899634      -0.07578162       0.01505788
H       14.57642019      11.94809187      11.68184022      -0.07359156       0.08045087      -0.11090198       0.09897521       0.00522845       0.00296833
H        4.12348510       6.95951004      13.39318587       0.11275764       0.28207749      -0.10768819       0.01401183      -0.14419783      -0.24474040
H       14.76046334       4.82824723      12.47120334       0.36427070       0.46701930      -0.15612109       0.05505185       0.08975673       0.13623087
H        6.60004505       3.41382775      12.62138589      -0.63458174      -0.02134251       0.29118291       0.08364439      -0.07836479       0.08843688
H       13.94783771      13.60986246      12.11416455      -0.13891611      -1.40716626      -0.73673502      -0.02957468       0.17686328      -0.07201056
H        2.95381482       5.97743142      12.27692201       0.17189957       0.76398372       0.45026521      -0.10518744      -0.06061098       0.05053343
H       14.91648626       7.73743133      15.39817178      -0.23807969       0.41076245      -0.53780143      -0.06840932       0.01595089      -0.13949322
C        5.81223221       1.94750196      13.79477596      -0.18935301      -0.83198377       0.42977897       0.37350916      -0.43717851       0.34882273
C       12.56049507      12.26628223      11.31245289      -1.79569991       0.14795463      -0.44409009      -0.24281679       0.00330873       0.01971662
C        1.95906453       7.39437218      13.33826331       1.08726236       0.88968680      -0.40179772      -0.06408303      -0.41200038       0.17488939
C       15.73083083       6.49509293      11.62042867       0.22875989      -0.06711865       0.36731454       0.10224413      -0.19000301       0.09860384
N        4.78425890       1.32360205      14.39442945      -0.53237288       0.12352745       0.00513270       0.54984897       0.66433662       0.23680809
N       12.10804211      11.06298799      10.77443963       0.61425217       0.11013341       0.12686956      -0.36934615       0.58459017       0.60835529
N        2.67982008       6.82797590      17.53644892      -0.93931517       0.29763274       0.19620348      -0.03587471       0.79589188      -0.16144261
N       14.78921202       6.93933186      10.79436303      -0.70603118      -1.75128422       0.39238397      -0.40168202       0.77633067      -0.29983008
N        5.75660230       3.13800964      13.19782788       0.07526385      -0.10208209      -0.46907612      -0.08410504       0.07692567       0.17663051
N       13.78170036      12.61346296      11.68472216       1.34626164       1.48895686       1.48546238      -0.72819060      -0.01579080      -0.70680224
N        3.06546999       6.83911951      12.87748795      -0.01852279      -1.34128386      -0.22916933       0.88123881       0.56865122       0.00835834
N       15.62395949       5.42788451      12.39497447       0.30060998      -0.79896275       0.43377857       0.23467834      -0.38724672       0.13207804
Pb      -0.02794895       2.98932344      10.86729965      -0.25395876       0.08610572       0.13250820       1.09085525      -1.02456757      -1.45376062
Pb      17.94924937      10.95029816      14.11467384      -0.06194966       0.26355140      -0.22857312       3.97744641       2.96079353      -1.64210531
Pb       7.91801489       8.39181872      11.39534505      -0.25529074       0.25090928       0.16834493      -3.49704059       2.88498309      -0.17505072
Pb      10.09833184       4.80083061      13.85910967      -0.16584605      -0.19432315      -0.14422042      -1.02264039      -0.27100909      -0.36878834
I       38.94271883       4.31828546      14.52039429       0.10422116      -0.23770041      -0.12849431      -2.14127157       0.18586867       0.10149565
I       38.71614083       8.36861019      12.33062481       0.08904671       0.08604139      -0.10567445      -4.34807146       0.34716451       1.78756535
I        8.76425325      10.39756534      13.92644568      -0.09682233       0.01309791      -0.24066778       0.65824834       1.47441929      -0.28768317
I        9.10876093       2.72912885      11.27294617      -0.11106883       0.22183161       0.28562248      -2.65473444      -1.72340714       0.17107879
I       17.08743384       1.14786206      11.57293437      -0.13420113       0.15043466       0.13263403       1.08133755      -0.45669536      -0.34156548
I        0.91103324      12.13852569      13.40456248      -0.22261650       0.29459585       0.02078545      -1.09930888       1.89896241       0.14735845
I       10.83454040       6.86700554      11.54369872       0.15414100       0.22821094      -0.06653622      -0.51646780      -0.27704880      -0.76956940
I        6.78940540       6.28754877      13.67589598       0.24931260      -0.00869794       0.07165439      -1.84236863       0.02564346       0.47725570
I        2.98883551       3.87575540      10.81124444      -0.18349768       0.11763524       0.01553057      -0.07353677       3.08389517      -1.82522259
I       15.12619918       9.74036045      13.73137025      -0.17438321      -0.01733032       0.01257019      -0.73750008       0.81678757       0.57270282
I        4.97402279       9.72567535      11.11494982       0.21231510      -0.12331647       0.12044621      -2.58629291       1.40225208       0.62279984
I       13.07561686       3.72047241      14.18392522      -0.36960297      -0.09638253       0.00903347      -0.06127992      -2.47658860       1.46010882
H        6.37166279       1.39394477      18.42448544      -0.26947115       0.22554448      -0.11601705      -0.15726101      -0.00992553       0.09781483
H       11.37421083      12.60548940      16.36727361      -0.17514919       0.49949826      -0.12710595      -0.01169392      -0.10391494       0.22465890
H        0.64307976       6.82405956      18.14990565       0.54048532       0.07862845      -0.35188105       0.12314183      -0.01074703       0.03857527
H       16.78859347       6.68451222      16.31970539      -0.59968065      -0.17749066      -0.05482354      -0.11350110      -0.05143599       0.19527259
H        4.81597158       0.36998990      14.85748717       0.47041026       0.87622100      -0.65779710      -0.30395475      -0.20341424       0.07175905
H       11.06734134      10.83220948      14.83764575       0.48151645       0.08171080       0.30773945       0.04311019       0.23059409       0.14723076
H        0.98637199       8.72294890      14.45256667       0.05404575       0.23321653       0.20792427      -0.18599963      -0.06931173       0.18869547
H       16.60936895       4.76744143      17.50801149      -0.45328235      -0.21131326      -0.44498458      -0.11544807      -0.16040982       0.05609896
H        4.61461925       3.46102310      17.02927965       0.04746548      -0.07038912       0.03996152      -0.00626373      -0.02304020      -0.11802886
H       12.86473538      10.50470133      14.79030134      -0.16369705      -0.08407201      -0.16697263       0.15505020      -0.09393083       0.02730368
H        2.83147698       8.73691547      14.75007343      -0.42821112      -0.12740259      -0.17348427      -0.06041609      -0.13015098       0.00266360
H       14.91635920       4.42495043      17.09747548      -0.11604148       0.09601178      -0.02432808      -0.28334779       0.06467219      -0.27821345
H        3.19741309       1.39602978      17.72944780      -0.83026598       0.43938968       0.00530672       0.13676273       0.23829475      -0.12180903
H       14.37839188      11.93415781      16.20010430       0.10711353       0.22942784      -0.01397156       0.15631615      -0.10350113       0.15486736
H        2.49028330       9.05150462      19.02447926       0.16637104      -0.06028276      -0.06025967       0.11864465      -0.12212986       0.10998109
H       13.82945612       6.34190025      15.66751678      -0.04076247       0.04879446       0.05143660      -0.01125957       0.06126578       0.10552459
H        4.10160500       0.17484356      18.56832813       0.37168579      -0.47404285       0.37180573      -0.04302402       0.02639152       0.00441506
H       13.45657843      13.22355293      17.04769294       0.46036056       1.24115463       0.79061556      -0.01392040      -0.08236293       0.04388547
H        0.76794680       8.79398005      19.26780297       0.00238228       0.04856313      -0.00980962       0.06521171       0.12101259      -0.07739674
H       16.43389007       5.14543233      13.00409207      -0.38377356       0.20689721      -0.36639030       0.00960772      -0.08864229       0.06501304
C        5.37827901       1.83047070      18.04644117      -0.01155363      -0.40120102       0.03704580       0.17749980       0.67775257      -0.22366710
C       12.28933408      12.07694667      15.96893188       0.17338644      -0.88046433       0.06984095       0.38105508       0.00991583      -0.50688074
C        1.63056382       7.36478022      18.11530901      -0.71398212       0.29844671       1.33294957       0.34673211       0.03715903       0.50650604
C       15.80268942       6.14958508      16.30139374      -0.40760702      -0.03965768       0.48464375       0.73459568      -0.35382710       0.98766072
N        5.47082503       3.04109991      17.50648206       0.22840334      -0.29789205      -0.02296141      -0.14453640      -0.50982524       0.24613326
N       12.04743309      11.03234643      15.17522977       0.11822562       0.31707027       0.05106162      -0.09016266      -0.14941684      -0.16991365
N        1.93512083       8.39945745      14.19315145       0.06040943      -0.09190707       0.28833433       0.57403222      -0.14963746       0.10497689
N       15.77380883       4.94883425      16.89347256       0.97013985       0.58239503       0.07340664      -0.01357563       0.03325648       0.05565740
N        4.15953379       1.10344770      18.15133836       0.16972504       0.07660126      -0.06779371       0.18325859       0.65690942      -0.71467058
N       13.51374481      12.47182961      16.37903532      -0.96125516      -1.38746056      -0.94507597      -0.70726695      -0.44778256      -0.03640126
N        1.65054576       8.49062546      18.84001451      -0.15419819      -0.67283690      -0.83580164       0.12828350      -0.00260046       0.49525157
N       14.75342159       6.78075398      15.75250495       1.07200529      -0.72844286       0.51619616       0.64398177      -0.05058956      -0.20323845
Pb      -0.35678055       2.96225254      15.50741558       0.01179065       0.00194080       0.06484803       0.49032837      -0.23135218       1.68887897
Pb      17.72601717      10.72328669      18.66693594      -0.16819035       0.37186210      -0.02002014       1.54562465      -0.83943128       2.78567775
Pb       7.64131872       8.44497706      16.15654139      -0.04848222      -0.13175606      -0.11187793       1.63848558      -1.55562836       2.14839177
Pb      10.03394766       5.03735918      18.57767162      -0.19826626       0.07506434       0.05689336      -0.12393507      -0.34357614      -1.99689284
I       38.64592890       4.21831740      19.01488992       0.09361700       0.00473756       0.25593192      -1.08663635      -1.98092011      -0.02007652
I       38.75865646       8.47127652      17.02545959       0.09803153      -0.28794121      -0.08881693       1.30541505       0.44034237      -0.96698552
I        8.28600216      10.79333403      18.27231611       0.31671713      -0.08183254       0.14214775      -1.13008228       1.34861382       0.64217335
I        8.91384967       3.00230957      16.25614322       0.05726467      -0.11380797       0.00477547       0.35885567       1.36670604      -2.61112013
I       16.75816734       1.33342805      16.32962185       0.09341004      -0.06042198       0.02329738      -0.25645499      -0.86850648       0.87335542
I        0.71761716      12.48830089      18.30365614       0.02269345      -0.07687414      -0.21798692      -0.70915099      -0.80697353       0.59359100
I       10.72326727       7.03765786      16.09433056       0.10441849       0.14089158      -0.13234983      -1.16642593       0.74322944       1.74941247
I        6.89598633       6.45342255      18.64397049      -0.08620393      -0.06879868      -0.06476620       1.85006329      -0.47464783       0.14224697
I        2.62494007       3.99589585      15.45379750       0.14515122       0.07218667      -0.04509325      -1.14587592       1.13258617      -0.85766058
I       14.75563390       9.53879731      18.47656557       0.28199266       0.09509832       0.08525047      -2.12178606       1.32233774       1.03010662