768
Lattice="32.0609120611585 -0.5112882221814271 -0.5475189371990378 0.2896562838185469 31.11650681404145 -0.5358671673453327 0.3216333527679892 0.2519783857508381 17.761452272036312" Properties=species:S:1:pos:R:3:forces:R:3:momenta:R:3 energy=-3659.774164171157 stress="0.0032249093252772728 -8.960935206873966e-05 1.616647722314473e-05 -8.960935206873966e-05 0.002345941738782482 -7.311391081930063e-05 1.616647722314473e-05 -7.311391081930063e-05 0.0022084868833697553" free_energy=-3659.774164171157 pbc="T T T"
H        2.43649745       2.83661798       3.21447446       0.00000355       0.00001950      -0.00002503      -0.07225222      -0.22015659      -0.05111046
H        2.20364051       3.37472106       5.46267031      -0.00000697      -0.00001763       0.00003558       0.00983678       0.07070149      -0.01843959
H        2.39826523       1.72977852       6.00248294       0.00000276       0.00000700       0.00000437      -0.01155425      -0.02534263      -0.04571001
H        2.75158919       0.00844107       4.16266417      -0.00001299      -0.00001702      -0.00002472       0.09207014       0.09087490      -0.02485203
H        2.79306110       0.65898831       2.52862502       0.00000169       0.00000578       0.00001139      -0.09034710       0.03810474       0.00117257
H        6.47359739       3.19819272      16.40668572      -0.00000590       0.00003927       0.00002981      -0.00283694      -0.05082756      -0.01344569
H        6.74177311       2.67450635      18.65281817      -0.00002436      -0.00001865       0.00001923       0.11721494      -0.13982956      -0.16371861
H        6.57880307       4.32245639      19.18580469      -0.00001092       0.00000311       0.00002367       0.14481114      -0.06476512       0.16259355
H        6.20701699       6.03958947      17.33548561       0.00000403      -0.00000219       0.00002036      -0.14341588       0.00789778       0.06943441
H        6.12862352       5.37590302      15.70988331      -0.00000838      -0.00000896      -0.00002158      -0.13410313      -0.03999859       0.06027212
C        2.49589927       2.03991274       3.96499437      -0.00000463      -0.00001572       0.00000113      -0.09730338      -0.63915528       0.23996088
C        6.43800179       4.00217235      17.15091735       0.00000274      -0.00004737      -0.00003322      -0.49271112       0.14174043       0.21199030
N        2.33959585       2.38768589       5.22230277       0.00000373       0.00003737       0.00000032      -0.15386002      -0.05573784      -0.40752695
N        2.70812250       0.81753499       3.53461279       0.00000277      -0.00004754       0.00000628      -0.26180616      -0.21351524      -0.43698834
N        6.61279313       3.66035703      18.40722935       0.00000378       0.00002645      -0.00000839       0.24924852       0.10684994       0.67187513
N        6.23395478       5.22389901      16.71452825       0.00000938      -0.00000323       0.00000961      -0.12670132      -0.02788031       0.01734068
Pb       5.23635621      30.31849686      16.74048398       0.00000696       0.00001514       0.00001157       1.14193539       0.12160999       2.80575342
Pb       1.22766217      30.43061703      16.97138438      -0.00001649       0.00000728      -0.00000306       1.77503776       0.33914062      -0.36781784
I        6.64636220      -0.05297152       1.88588237      -0.00000235      -0.00000924      -0.00001719       1.92772830      -0.76669760      -1.08815619
I        1.89243261       5.31136438       1.79627513       0.00001102       0.00000478       0.00000922      -0.33230159       0.83359521      -0.54326438
I        6.82357606       0.52770601       6.32493259       0.00000188       0.00000195      -0.00001904       1.32050873      -0.13684869       1.68696116
I        1.94525146       5.88621330       6.22879038       0.00002396       0.00000413      -0.00001378      -1.00034333      -1.23971423      -0.81615462
I        5.88920795       4.23915801       4.21346475      -0.00000990       0.00001865      -0.00001165       1.48972793      -1.02802790       1.65463548
I        3.04363746       1.80364758      17.67770721      -0.00000839       0.00000154      -0.00001078      -1.63408706      -2.95065519       1.90531357
H        2.56607602      10.80177880      17.89906214      -0.00000243      -0.00000847      -0.00002159       0.09610317       0.07113341       0.01849391
H        2.26166364       8.61562070      18.58925743       0.00000732       0.00000686      -0.00000343      -0.08744778      -0.02890319       0.02315299
H        2.23573917       7.97183775      16.95532031       0.00000658       0.00000842       0.00000984       0.01099936      -0.04354789      -0.18092958
H        2.49736272       9.71062902      15.10418344      -0.00000119      -0.00004047      -0.00004917      -0.12154521      -0.06438215      -0.11830935
H        2.69764401      11.35242220      15.64684578       0.00001234      -0.00000497       0.00000583       0.13170415       0.08998704      -0.11262644
H        6.52672999      10.80397425       4.53412878      -0.00001048      -0.00004335       0.00003600       0.14731838      -0.24758586       0.21066537
H        6.89616723      12.99455888       5.17600037       0.00000577       0.00000510      -0.00000266       0.12981591       0.04692486      -0.10346668
H        6.84497583      13.61489411       3.53215747      -0.00002149      -0.00001055       0.00000611       0.04225646       0.04269916       0.04788601
H        6.46772335      11.85527136       1.72436741       0.00001341      -0.00000311      -0.00001700      -0.00410947      -0.04048257       0.06618782
H       14.92486698      12.84241942       5.21717000       0.00000687      -0.00000420       0.00002761       0.00145839      -0.13061933      -0.02277083
C        2.48345950      10.00715214      17.14853497      -0.00000819      -0.00001014       0.00003777       0.21909773      -0.33386587      -0.01382903
C        6.58289041      11.58686785       3.76878756       0.00000357       0.00004384      -0.00003286       0.84819079      -0.29313584       0.57074115
N        2.30884817       8.77996760      17.58233059      -0.00000911      -0.00001059      -0.00000328       0.40319144      -0.18954513       0.05759820
N        2.57633285      10.36397740      15.88753591       0.00001724       0.00006465       0.00003629      -0.81950306      -0.05802036       0.27367518
N        6.79955476      12.81692557       4.17460643       0.00000039      -0.00000765       0.00000473      -0.83559370      -0.42016240      -0.26706640
N        6.41842728      11.21427522       2.51982021       0.00000972       0.00000044       0.00005410      -0.59272956      -0.12864345      -0.37687840
Pb       3.94203890       6.81638226       3.81508612       0.00000296       0.00002032      -0.00000809       1.25933894       1.26459181       0.53158051
Pb      31.98289533       6.33392257       3.27869308       0.00000124      -0.00000296      -0.00002511      -2.31740491       0.32254521       2.07810537
I        5.94872361       8.32245377       5.84932735       0.00000861       0.00000142       0.00001472       0.49241415      -0.36338908      -2.40297549
I        2.78339376      13.71215734       5.84724057       0.00000428       0.00000912      -0.00000186       0.11274982       1.74128964      -0.47065102
I        5.96587671       7.73253342       1.42495202      -0.00001197      -0.00000902      -0.00000118       1.32973650      -1.14013034      -1.40967914
I        2.83386248      13.06847083       1.39720760      -0.00000257      -0.00001866       0.00000706      -0.44195454      -1.23548367       0.50152475
I        7.07461992      12.17944729      16.69251788      -0.00001593       0.00000090      -0.00000187       0.06869254       0.10097964      -0.34443782
I        1.93355586       9.36918021       3.46326334      -0.00000236      -0.00000576      -0.00002023      -1.12353528       0.25036420       0.18524364
H       10.37879476       2.68608192       3.11061280      -0.00000768      -0.00001751       0.00001447      -0.01717367       0.17654528      -0.04950167
H       10.24977301       3.26063713       5.35852095       0.00000621       0.00004252       0.00001098       0.07273996      -0.01394964       0.17207197
H       10.44181282       1.62192365       5.91543134      -0.00001214      -0.00002045       0.00004093       0.05316435       0.07193629       0.06412469
H       10.68951770      -0.13379565       4.08662348       0.00001332      -0.00001616       0.00001254      -0.06297735      -0.09449220      -0.05205179
H       10.66710113       0.49263402       2.44361774       0.00000785       0.00001518       0.00000306      -0.16379264      -0.04767176      -0.01295282
H       14.40518403       5.31088435      18.15473046       0.00000738       0.00000804       0.00001282       0.16008099       0.16617353       0.04275636
H       14.25639727       5.79867258      15.88333130      -0.00000651      -0.00001067       0.00000273      -0.10178017      -0.26385364      -0.06554013
H       14.44716283       4.13993686      15.39510339       0.00003121       0.00000548       0.00002067       0.11942750      -0.01975260       0.05282339
H       14.78932568       2.47114203      17.27288823      -0.00000319       0.00000631       0.00000962      -0.14050230      -0.04803849       0.09082873
H       14.73397952       3.14975931      18.89928274       0.00000198      -0.00000365       0.00002616      -0.06774769      -0.01876233       0.01622245
C       10.45618777       1.89943735       3.86991537       0.00000034       0.00000668      -0.00003362       0.21513958      -0.98610388       0.69658296
C       14.49349446       4.49863084      17.42617046      -0.00000910      -0.00000551       0.00003503       0.52934571      -0.32343535       0.56721153
N       10.36612095       2.26901483       5.12742395      -0.00001134      -0.00002174      -0.00006677       1.08688875      -0.09745830       0.38628029
N       10.62219565       0.66660989       3.44946218       0.00001372       0.00001757      -0.00001011       0.39888534       0.14681184       0.28999933
N       14.38437000       4.81934883      16.15632833      -0.00001825       0.00001065      -0.00004682       0.61852069      -0.65785264      -0.16753118
N       14.69875489       3.28813119      17.88879980       0.00000280      -0.00003010      -0.00003259      -0.12310639      -0.09439970      -0.88849211
Pb      13.24579048      30.21150700      16.73736769       0.00000479      -0.00000697      -0.00000158      -4.50573094       0.31067396      -0.08872586
Pb       9.24152425      30.26465877      16.74738038       0.00000092       0.00000203       0.00001574      -1.93669363      -1.34366983      -1.11983995
I       14.97734872      30.87365578       1.34453140       0.00000705       0.00000207       0.00001294       0.42673740      -2.33537936      -1.07597445
I        9.82384159       5.17462170       1.72587434       0.00000117      -0.00001614      -0.00003607      -1.06349435      -1.36651637      -0.38242761
I       14.79825922       0.58820806       6.37537771       0.00000783      -0.00000766       0.00001734      -0.57602563       0.78316433      -1.13169056
I       10.03453811       5.76882884       6.14560641      -0.00001163      -0.00000945      -0.00001515      -3.11591936       0.35334130       0.74491707
I       13.91426803       4.01868610       3.67766096       0.00000319       0.00002784      -0.00000119       0.87542984      -0.67226132       0.54365594
I       10.68286988       1.41345204      -0.17283335       0.00001052       0.00001858       0.00000024       0.09894708       1.01715554      -1.99336109
H       10.60724859      10.66575478      17.81296804      -0.00001789       0.00002931       0.00002955      -0.14860703       0.01263585      -0.17887804
H       10.80918391      11.18592095      15.55847599      -0.00001130      -0.00000181      -0.00001204      -0.14181966       0.12689367       0.13775838
H       10.57476991       9.54381678      15.03022590       0.00000471      -0.00003019       0.00000123       0.04367960      -0.08827041      -0.12164114
H       10.21970007       7.83630052      16.89107882      -0.00000537      -0.00000125      -0.00000429       0.13418193      -0.15782731       0.15171216
H       10.22203754       8.49780780      18.51890889       0.00001869      -0.00000619      -0.00002062       0.03523809      -0.08278175       0.09227274
H       14.53360060      10.69115945       4.47886234      -0.00001035       0.00003607      -0.00003234       0.02175956       0.02141249       0.12836547
H       14.26608104      10.21710228       2.21570729       0.00000806       0.00000675      -0.00000699       0.08030511       0.10466845      -0.23776509
H       14.47484133      11.87750779       1.72742000      -0.00001768       0.00002071      -0.00002795       0.16313774       0.09406042       0.11180997
H       14.87724433      13.53463439       3.59233733       0.00000736      -0.00000066       0.00000984       0.07520698      -0.03389736       0.21571162
H        6.27148335      10.22458100       2.29936178       0.00000309      -0.00000087      -0.00001416       0.03756441      -0.08484611       0.06839301
C       10.52030533       9.86491778      17.06940605       0.00000141      -0.00000984       0.00001435      -0.50311867      -0.47669199      -0.09190188
C       14.59284473      11.50637261       3.74932178      -0.00001032      -0.00007509      -0.00000655      -0.16307370      -0.77434038      -0.18510787
N       10.65935810      10.20351042      15.80738218       0.00000858       0.00000920       0.00003467      -0.13970325       0.42043102       0.88196956
N       10.29221455       8.64969272      17.51126588       0.00000639       0.00000832      -0.00000995      -0.57097540      -0.62522984       0.27790353
N       14.42109375      11.19421293       2.48512922       0.00001267      -0.00000787       0.00003392       0.15299994      -0.01644677       0.43553550
N       14.82354287      12.71512343       4.20748054      -0.00000024       0.00003419       0.00000251       0.38661096      -0.17777137      -0.22992392
Pb      11.97103154       6.65641976       3.63257125      -0.00000045      -0.00001189      -0.00000417       0.29614940       2.56514287       0.12370532
Pb       7.95307431       6.74429900       3.83204334      -0.00000349       0.00000318       0.00000978       1.34266884       4.42096701       0.71447963
I       14.01538042       8.06216646       5.73517846      -0.00000020       0.00001277       0.00000444       1.20929785       3.70036083       0.00069357
I       10.91777815      13.54451822       5.74499163      -0.00000008       0.00000386      -0.00000903      -1.14249851      -2.30304240       0.14623675
I       13.92452947       7.77729280       1.29366414      -0.00000107      -0.00002367      -0.00000004      -1.66016274       3.88528799      -1.03579814
I       10.78695753      12.93876996       1.30263734      -0.00000980       0.00000124      -0.00000956       0.87000524       1.60936348      -0.88585101
I       15.10118425      12.08147653      16.64090289      -0.00000440       0.00000020      -0.00000824      -0.14541086      -0.63506030      -0.87492615
I        9.99030982       9.23664458       3.38153326      -0.00000031       0.00002103      -0.00001146       1.62779249      -1.19434004      -0.66593262
H        2.59731413       2.96260717      12.09520060       0.00000355       0.00001950      -0.00002503      -0.07225222      -0.22015659      -0.05111046
H        2.36445719       3.50071025      14.34339645      -0.00000697      -0.00001763       0.00003558       0.00983678       0.07070149      -0.01843959
H        2.55908191       1.85576771      14.88320908       0.00000276       0.00000700       0.00000438      -0.01155425      -0.02534263      -0.04571001
H        2.91240587       0.13443027      13.04339031      -0.00001297      -0.00001728      -0.00002456       0.09207014       0.09087490      -0.02485203
H        2.95387778       0.78497750      11.40935116       0.00000169       0.00000577       0.00001140      -0.09034710       0.03810474       0.00117257
H        6.31278072       3.07220352       7.52595959      -0.00000590       0.00003926       0.00002981      -0.00283694      -0.05082756      -0.01344569
H        6.58095644       2.54851715       9.77209204      -0.00002436      -0.00001865       0.00001924       0.11721494      -0.13982956      -0.16371861
H        6.41798640       4.19646719      10.30507856      -0.00001092       0.00000311       0.00002367       0.14481114      -0.06476512       0.16259355
H        6.04620032       5.91360027       8.45475948       0.00000403      -0.00000219       0.00002036      -0.14341588       0.00789778       0.06943441
H        5.96780685       5.24991382       6.82915718      -0.00000838      -0.00000896      -0.00002158      -0.13410313      -0.03999859       0.06027212
C        2.65671595       2.16590193      12.84572051      -0.00000463      -0.00001569       0.00000112      -0.09730338      -0.63915528       0.23996088
C        6.27718512       3.87618315       8.27019122       0.00000270      -0.00004729      -0.00003337      -0.49271112       0.14174043       0.21199030
N        2.50041253       2.51367508      14.10302891       0.00000373       0.00003737       0.00000030      -0.15386002      -0.05573784      -0.40752695
N        2.86893918       0.94352418      12.41533893       0.00000275      -0.00004729       0.00000613      -0.26180616      -0.21351524      -0.43698834
N        6.45197646       3.53436783       9.52650322       0.00000382       0.00002636      -0.00000823       0.24924852       0.10684994       0.67187513
N        6.07313811       5.09790981       7.83380212       0.00000937      -0.00000321       0.00000957      -0.12670132      -0.02788031       0.01734068
Pb       5.07553953      30.19250767       7.85975785       0.00000698       0.00001513       0.00001154       1.14193539       0.12160999       2.80575342
Pb       1.06684549      30.30462784       8.09065825      -0.00001650       0.00000728      -0.00000308       1.77503776       0.33914062      -0.36781784
I        6.80717888       0.07301767      10.76660851      -0.00000236      -0.00000923      -0.00001718       1.92772830      -0.76669760      -1.08815619
I        2.05324929       5.43735357      10.67700127       0.00001102       0.00000478       0.00000922      -0.33230159       0.83359521      -0.54326438
I        6.98439274       0.65369520      15.20565873       0.00000187       0.00000195      -0.00001906       1.32050873      -0.13684869       1.68696116
I        2.10606814       6.01220249      15.10951652       0.00002396       0.00000413      -0.00001379      -1.00034333      -1.23971423      -0.81615462
I        6.05002463       4.36514720      13.09419089      -0.00000990       0.00001865      -0.00001165       1.48972793      -1.02802790       1.65463548
I        2.88282079       1.67765838       8.79698108      -0.00000840       0.00000156      -0.00001078      -1.63408706      -2.95065519       1.90531357
H        2.40525935      10.67578960       9.01833601      -0.00000242      -0.00000851      -0.00002160       0.09610317       0.07113341       0.01849391
H        2.10084697       8.48963150       9.70853130       0.00000732       0.00000685      -0.00000343      -0.08744778      -0.02890319       0.02315299
H        2.07492250       7.84584855       8.07459418       0.00000658       0.00000849       0.00000987       0.01099936      -0.04354789      -0.18092958
H        2.33654605       9.58463982       6.22345731      -0.00000118      -0.00004046      -0.00004916      -0.12154521      -0.06438215      -0.11830935
H        2.53682734      11.22643300       6.76611965       0.00001233      -0.00000498       0.00000584       0.13170415       0.08998704      -0.11262644
H        6.68754667      10.92996344      13.41485492      -0.00001048      -0.00004335       0.00003600       0.14731838      -0.24758586       0.21066537
H        7.05698391      13.12054807      14.05672651       0.00000577       0.00000510      -0.00000266       0.12981591       0.04692486      -0.10346668
H        7.00579251      13.74088330      12.41288361      -0.00002149      -0.00001056       0.00000611       0.04225646       0.04269916       0.04788601
H        6.62854003      11.98126055      10.60509355       0.00001341      -0.00000311      -0.00001700      -0.00410947      -0.04048257       0.06618782
H       15.08568366      12.96840861      14.09789614       0.00000687      -0.00000419       0.00002761       0.00145839      -0.13061933      -0.02277083
C        2.32264283       9.88116294       8.26780884      -0.00000819      -0.00000990       0.00003771       0.21909773      -0.33386587      -0.01382903
C        6.74370709      11.71285704      12.64951370       0.00000357       0.00004384      -0.00003287       0.84819079      -0.29313584       0.57074115
N        2.14803150       8.65397840       8.70160446      -0.00000913      -0.00001086      -0.00000321       0.40319144      -0.18954513       0.05759820
N        2.41551618      10.23798820       7.00680978       0.00001725       0.00006467       0.00003625      -0.81950306      -0.05802036       0.27367518
N        6.96037144      12.94291476      13.05533257       0.00000039      -0.00000765       0.00000472      -0.83559370      -0.42016240      -0.26706640
N        6.57924396      11.34026441      11.40054635       0.00000972       0.00000043       0.00005411      -0.59272956      -0.12864345      -0.37687840
Pb       4.10285558       6.94237145      12.69581226       0.00000296       0.00002032      -0.00000808       1.25933894       1.26459181       0.53158051
Pb      32.14371201       6.45991176      12.15941922       0.00000124      -0.00000296      -0.00002511      -2.31740491       0.32254521       2.07810537
I        6.10954029       8.44844296      14.73005349       0.00000861       0.00000142       0.00001472       0.49241415      -0.36338908      -2.40297549
I        2.94421044      13.83814653      14.72796671       0.00000427       0.00000913      -0.00000186       0.11274982       1.74128964      -0.47065102
I        6.12669339       7.85852261      10.30567816      -0.00001197      -0.00000902      -0.00000118       1.32973650      -1.14013034      -1.40967914
I        2.99467916      13.19446002      10.27793374      -0.00000257      -0.00001864       0.00000704      -0.44195454      -1.23548367       0.50152475
I        6.91380325      12.05345809       7.81179175      -0.00001593       0.00000092      -0.00000188       0.06869254       0.10097964      -0.34443782
I        2.09437254       9.49516940      12.34398948      -0.00000236      -0.00000576      -0.00002023      -1.12353528       0.25036420       0.18524364
H       10.53961144       2.81207111      11.99133894      -0.00000768      -0.00001751       0.00001448      -0.01717367       0.17654528      -0.04950167
H       10.41058969       3.38662632      14.23924709       0.00000621       0.00004252       0.00001098       0.07273996      -0.01394964       0.17207197
H       10.60262950       1.74791284      14.79615748      -0.00001213      -0.00002045       0.00004094       0.05316435       0.07193629       0.06412469
H       10.85033438      -0.00780645      12.96734962       0.00001334      -0.00001642       0.00001270      -0.06297735      -0.09449220      -0.05205179
H       10.82791781       0.61862321      11.32434388       0.00000785       0.00001517       0.00000307      -0.16379264      -0.04767176      -0.01295282
H       14.24436736       5.18489515       9.27400433       0.00000740       0.00000798       0.00001279       0.16008099       0.16617353       0.04275636
H       14.09558060       5.67268338       7.00260517      -0.00000651      -0.00001068       0.00000273      -0.10178017      -0.26385364      -0.06554013
H       14.28634616       4.01394766       6.51437726       0.00003121       0.00000548       0.00002068       0.11942750      -0.01975260       0.05282339
H       14.62850901       2.34515283       8.39216210      -0.00000321       0.00000639       0.00000965      -0.14050230      -0.04803849       0.09082873
H       14.57316285       3.02377011      10.01855661       0.00000198      -0.00000366       0.00002617      -0.06774769      -0.01876233       0.01622245
C       10.61700445       2.02542654      12.75064151       0.00000034       0.00000671      -0.00003364       0.21513958      -0.98610388       0.69658296
C       14.33267779       4.37264164       8.54544433      -0.00000917      -0.00000523       0.00003496       0.52934571      -0.32343535       0.56721153
N       10.52693763       2.39500402      14.00815009      -0.00001134      -0.00002174      -0.00006678       1.08688875      -0.09745830       0.38628029
N       10.78301233       0.79259908      12.33018832       0.00001370       0.00001782      -0.00001027       0.39888534       0.14681184       0.28999933
N       14.22355333       4.69335963       7.27560220      -0.00001825       0.00001068      -0.00004687       0.61852069      -0.65785264      -0.16753118
N       14.53793822       3.16214199       9.00807367       0.00000286      -0.00003041      -0.00003251      -0.12310639      -0.09439970      -0.88849211
Pb      13.08497380      30.08551781       7.85664156       0.00000481      -0.00000697      -0.00000159      -4.50573094       0.31067396      -0.08872586
Pb       9.08070757      30.13866958       7.86665425       0.00000092       0.00000202       0.00001571      -1.93669363      -1.34366983      -1.11983995
I       15.13816540      30.99964498      10.22525754       0.00000704       0.00000206       0.00001293       0.42673740      -2.33537936      -1.07597445
I        9.98465827       5.30061089      10.60660048       0.00000117      -0.00001614      -0.00003607      -1.06349435      -1.36651637      -0.38242761
I       14.95907590       0.71419725      15.25610385       0.00000783      -0.00000766       0.00001733      -0.57602563       0.78316433      -1.13169056
I       10.19535479       5.89481803      15.02633255      -0.00001163      -0.00000945      -0.00001516      -3.11591936       0.35334130       0.74491707
I       14.07508471       4.14467529      12.55838710       0.00000319       0.00002784      -0.00000119       0.87542984      -0.67226132       0.54365594
I       10.84368656       1.53944123       8.70789279       0.00001052       0.00001860       0.00000025       0.09894708       1.01715554      -1.99336109
H       10.44643192      10.53976558       8.93224191      -0.00001788       0.00002926       0.00002954      -0.14860703       0.01263585      -0.17887804
H       10.64836724      11.05993175       6.67774986      -0.00001130      -0.00000183      -0.00001204      -0.14181966       0.12689367       0.13775838
H       10.41395324       9.41782758       6.14949977       0.00000471      -0.00003019       0.00000124       0.04367960      -0.08827041      -0.12164114
H       10.05888340       7.71031132       8.01035269      -0.00000536      -0.00000118      -0.00000426       0.13418193      -0.15782731       0.15171216
H       10.06122087       8.37181860       9.63818276       0.00001869      -0.00000620      -0.00002061       0.03523809      -0.08278175       0.09227274
H       14.69441728      10.81714864      13.35958848      -0.00001035       0.00003608      -0.00003234       0.02175956       0.02141249       0.12836547
H       14.42689772      10.34309147      11.09643343       0.00000806       0.00000676      -0.00000699       0.08030511       0.10466845      -0.23776509
H       14.63565801      12.00349698      10.60814614      -0.00001768       0.00002071      -0.00002796       0.16313774       0.09406042       0.11180997
H       15.03806101      13.66062358      12.47306347       0.00000736      -0.00000067       0.00000985       0.07520698      -0.03389736       0.21571162
H        6.43230003      10.35057019      11.18008792       0.00000309      -0.00000087      -0.00001416       0.03756441      -0.08484611       0.06839301
C       10.35948866       9.73892858       8.18867992       0.00000141      -0.00000960       0.00001429      -0.50311867      -0.47669199      -0.09190188
C       14.75366141      11.63236180      12.63004792      -0.00001032      -0.00007509      -0.00000655      -0.16307370      -0.77434038      -0.18510787
N       10.49854143      10.07752122       6.92665605       0.00000860       0.00000922       0.00003463      -0.13970325       0.42043102       0.88196956
N       10.13139788       8.52370352       8.63053975       0.00000636       0.00000806      -0.00000988      -0.57097540      -0.62522984       0.27790353
N       14.58191043      11.32020212      11.36585536       0.00001267      -0.00000788       0.00003392       0.15299994      -0.01644677       0.43553550
N       14.98435955      12.84111262      13.08820668      -0.00000024       0.00003419       0.00000249       0.38661096      -0.17777137      -0.22992392
Pb      12.13184822       6.78240895      12.51329739      -0.00000045      -0.00001189      -0.00000417       0.29614940       2.56514287       0.12370532
Pb       8.11389099       6.87028819      12.71276948      -0.00000348       0.00000318       0.00000978       1.34266884       4.42096701       0.71447963
I       14.17619710       8.18815565      14.61590460      -0.00000020       0.00001278       0.00000444       1.20929785       3.70036083       0.00069357
I       11.07859483      13.67050741      14.62571777      -0.00000009       0.00000387      -0.00000903      -1.14249851      -2.30304240       0.14623675