768
Lattice="40.227587415121015 -0.7682833808457515 1.3263590934115383 0.394859312395313 23.52400323722727 0.25591382290307674 -0.5366011814355014 -0.10491616676151522 18.726843227480614" Properties=species:S:1:pos:R:3:forces:R:3:momenta:R:3 energy=-3661.0690667563363 stress="0.004093710280547412 -3.657509090846134e-05 2.726285803293657e-05 -3.657509090846134e-05 0.00384405780078993 8.510603712864241e-05 2.726285803293657e-05 8.510603712864241e-05 0.004141366823150593" free_energy=-3661.0690667563363 pbc="T T T"
H        6.93260143       0.97032250       4.15154298       0.00000535       0.00000662      -0.00002387       0.01348756      -0.00697391      -0.08163438
H       11.70383764      12.73100498       2.08659475      -0.00001355       0.00001200      -0.00000073       0.01238663       0.07876214      -0.02195084
H        1.47360824       6.95312312       4.03005937      -0.00001345       0.00000459      -0.00001091       0.09010796      -0.00433321       0.23033450
H       17.15219896       6.74317188       2.18872598       0.00001436      -0.00001844       0.00002202       0.00816012       0.06069885       0.10902581
H        6.92554508       2.88921559       7.56662010       0.00000068       0.00000986      -0.00000581       0.15593213      -0.05937362       0.01412257
H       11.64164562      10.80583846       0.78282944      -0.00000647       0.00001490       0.00001316       0.00331915      -0.24901483       0.07315283
H        3.31154798       6.17584558       7.73953002       0.00000394      -0.00001535      -0.00002698       0.03251658       0.12611925       0.12750931
H       15.21725460       7.47936244       1.13662638       0.00000388       0.00002059       0.00000088       0.06309781      -0.16419906      -0.03593251
H        4.05157814       1.68869185       4.52796594      -0.00000668      -0.00000142      -0.00000974       0.07144899       0.01605000       0.09606796
H       13.34502704      10.44577488       1.04822463      -0.00000152       0.00001438      -0.00000311      -0.09899506       0.10005527      -0.11055542
H        4.24276033       7.54341776       8.32725342       0.00001633       0.00000166      -0.00000449       0.07027093       0.09535851       0.15306976
H       14.27684535       6.09447810       1.66740019      -0.00000881       0.00002306      -0.00000573       0.26992916      -0.12577436       0.09204856
H        5.33818255       3.25501010       3.04178473      -0.00000680      -0.00000302       0.00000386      -0.03452292       0.04889493       0.03728716
H       14.54534229      11.97337657       2.64419962       0.00000099       0.00000839       0.00000955       0.01148629       0.08210394       0.04672730
H        4.37683001       7.56966243       3.64550825      -0.00001986      -0.00001816      -0.00001223       0.03779586      -0.00060150      -0.03160272
H       15.44647025       4.50168899       3.21667911      -0.00000190      -0.00000157      -0.00000670       0.01273549       0.16031361      -0.04515167
H        7.05964988       2.91555648       2.88476830      -0.00001132       0.00000530      -0.00001193       0.00619085      -0.09438589      -0.24671887
H       13.64644130      13.38447929       3.17821804       0.00000088      -0.00001914      -0.00001961      -0.03762979      -0.18563569       0.01984311
H        3.44553488       6.20211212       3.05786922       0.00000994      -0.00002112      -0.00000985      -0.14618390       0.04750903      -0.08882955
H       15.08320116       7.45318440       5.81836788       0.00000173       0.00001872       0.00000158       0.00179629      -0.03182704      -0.14768901
C        6.03594553       1.58492618       4.01507716       0.00001261      -0.00000184       0.00003613       0.28124120      -0.13505796      -0.03650712
C       12.60118183      12.10843884       1.99981286       0.00001467      -0.00000925      -0.00001181       0.64370791      -0.13644982      -0.28066860
C        2.39359064       7.53113563       4.17121056      -0.00000273       0.00000402       0.00000131      -0.22563051      -0.58649439      -0.05678101
C       16.23516242       6.15059492       2.27981932      -0.00002840      -0.00000298      -0.00000050       0.30204508       0.27252800      -0.18012301
N        4.92708564       1.16655872       4.58164862      -0.00003012       0.00001417      -0.00001864       0.65970151       0.56950820      -0.49104153
N       12.52368880      11.02627921       1.25720173       0.00002799      -0.00003055      -0.00001277      -0.65463317      -0.04847510      -0.04692650
N        3.34847300       7.05402936       8.27290651       0.00000609       0.00001925       0.00000368      -0.39639783      -0.18189245      -0.00469430
N       15.16694940       6.59393059       1.65675053       0.00001711      -0.00003559       0.00001865       0.05447029      -0.35366805       0.21521784
N        6.15037262       2.67991163       3.29653424       0.00001806      -0.00000883       0.00001434       0.62328568       0.53307090      -0.34359383
N       13.67386892      12.50504919       2.64627825      -0.00000359       0.00000927       0.00001914      -0.95845841       0.17416062      -0.30988485
N        3.48252267       7.08029953       3.59123470       0.00002056       0.00004914       0.00002976      -0.65266744       0.34842439      -1.01364335
N       16.28584856       5.05501394       3.00473367       0.00000267       0.00002449      -0.00002363      -0.03229977       0.56307056       0.95726850
Pb       0.37312129       2.93052836       1.72101710      -0.00000239       0.00000257       0.00000338       1.18826771      -0.30239489      -0.28492097
Pb      18.26161797      10.74122545       4.74971058      -0.00000977      -0.00000528      -0.00000732      -1.64856265       1.50207866       0.93840734
Pb       8.24245484       8.67470305       1.80822570      -0.00001385      -0.00000849      -0.00000451      -0.91888215      -3.56386195      -3.68641908
Pb      10.40263163       5.02237983       4.17923292      -0.00000441       0.00000713      -0.00000420      -0.64495357       0.83205879       1.81890054
I       39.57370747       4.19730770       5.36757765      -0.00000284       0.00000834      -0.00001216      -1.25732288       2.39177346       0.68047322
I       39.41420907       8.32527866       3.08250663       0.00001066      -0.00000954      -0.00000526       1.30682837       2.27370696      -0.85730573
I        9.21110635      10.67435401       4.19663251      -0.00000338       0.00000515       0.00000497      -1.23999995       0.33121276       0.13030806
I        9.43854143       3.02334566       1.80111315      -0.00000249      -0.00000049       0.00000551       0.10676962      -2.07971616       0.87799917
I       17.37688436       1.17314213       2.27175035       0.00000897      -0.00000445       0.00000645      -0.21746846      -0.82934817      -0.02586630
I        1.25903852      12.49948401       4.19684737       0.00000111      -0.00000339      -0.00000168      -1.24273321       0.76147121      -0.10838177
I       11.30187788       7.18728668       1.87595330      -0.00000379      -0.00001173       0.00001515       0.22512744      -0.30000014      -0.13220548
I        7.34315982       6.50891096       4.11346342       0.00000008       0.00000293       0.00000619      -1.59145603       2.36218949      -1.30315725
I        3.28513202       4.09508110       1.56571144       0.00000743      -0.00000747       0.00001237      -4.05876386       2.33349928      -0.65308786
I       15.36132607       9.58795148       4.38909794       0.00000677       0.00001176      -0.00000649       0.09323547      -1.15095105      -0.74205715
I        5.36977994       9.93202859       1.99352833      -0.00001276       0.00001053       0.00000358       0.09574303      -0.60433385       1.23052358
I       13.25448708       3.74743624       4.51200648       0.00000198      -0.00000103       0.00000604       1.19116638      -1.34786731      -1.78056799
H        6.79836641       0.94395323       8.83335353      -0.00000838       0.00001202      -0.00000442       0.12254253       0.07860672      -0.01679505
H       11.56974899      12.70481832       6.76823767       0.00000718      -0.00001731       0.00000534       0.14577557      -0.00714607      -0.00311765
H        1.33954181       6.92674835       8.71162462      -0.00000160       0.00001429       0.00001299       0.27164388      -0.17086775      -0.23336835
H       17.01809324       6.71686562       6.87048650       0.00001655       0.00000705      -0.00000505      -0.07067218      -0.07053692       0.06244369
H        4.92856607       0.27954789       5.10159417       0.00001253      -0.00001882       0.00001310       0.03660615      -0.05997130       0.13068218
H       11.50753030      10.77961366       5.46452832      -0.00001546      -0.00000113      -0.00000907      -0.06114989       0.09852469      -0.03271788
H        1.42659424       8.88155793       5.32768469      -0.00000619      -0.00001185       0.00000167      -0.00942859       0.03675559       0.07197145
H       17.03163663       4.77063683       8.14556381       0.00002518      -0.00001230       0.00001310       0.06240830      -0.14433875       0.06629890
H        5.20409928       3.22875863       7.72362955      -0.00002058       0.00000458      -0.00000318       0.01532154      -0.15552124       0.15314160
H       13.21090305      10.41952453       5.72995161       0.00000174      -0.00001578      -0.00000234       0.00239727       0.10141953      -0.23473336
H        3.15829420       9.15835248       5.16766934       0.00002265      -0.00001537      -0.00000794       0.09032681       0.10364282      -0.09932002
H       15.31224640       4.47543070       7.89834595      -0.00000011       0.00000202      -0.00002048      -0.10293882       0.08861844      -0.17341916
H        3.91737503       1.66248857       9.20973739       0.00000813      -0.00000494      -0.00000486       0.01370127      -0.06191764      -0.11559889
H       14.41120871      11.94710041       7.32595436       0.00001628       0.00000515      -0.00000873       0.12935612       0.06996129      -0.21059982
H        3.02408071       9.13201102       9.84938363       0.00002846      -0.00000315       0.00001248       0.09481251      -0.01472143      -0.05968377
H       14.14271710       6.06833208       6.34908368      -0.00001205       0.00000101       0.00000863       0.06452964       0.02779788       0.11230572
H        4.79427468       0.25327734       9.78334821       0.00000568      -0.00001055       0.00002391      -0.05157058      -0.12343813       0.04052038
H       13.51233955      13.35825080       7.85990246      -0.00000079       0.00000543       0.00001439       0.06747207      -0.15257986       0.07687058
H        1.29238557       8.85514194      10.00932193      -0.00000879       0.00001018       0.00000868      -0.05777722       0.11339066      -0.16335866
H       17.16585176       4.79696976       3.46387033       0.00000842      -0.00000131      -0.00000010      -0.09731171      -0.08927170      -0.12222037
C        5.90174995       1.55861660       8.69689274       0.00000119       0.00002897      -0.00001631      -0.03195895      -0.35161593      -0.17934281
C       12.46707650      12.08222047       6.68149438       0.00000261      -0.00000905      -0.00000734      -0.25238626      -0.33192388      -0.00844651
C        2.25949261       7.50479567       8.85284362      -0.00003053      -0.00000669       0.00001336       0.57231139       0.85691822      -0.27648852
C       16.10102619       6.12433116       6.96154105      -0.00004090      -0.00001814      -0.00000477      -0.28883138      -0.48810297       0.07968089
N        6.01625530       2.65361630       7.97838315       0.00002188      -0.00002083       0.00001156       0.55039611      -0.81381367      -0.02352328
N       12.38957100      11.00004370       5.93890857       0.00000015       0.00003314       0.00001032      -0.07063460      -0.17645376       0.41722292
N        2.32432717       8.61792627       4.90804394       0.00000459      -0.00000929       0.00000101      -0.79159724      -0.17103047       0.39906126
N       16.15165140       5.02872286       7.68641784      -0.00001345       0.00003380      -0.00001208       0.16302362       0.02843251      -0.08211645
N        4.79285224       1.14030492       9.26343136      -0.00001468      -0.00001623      -0.00000250       0.02996682       0.25679907      -0.16791700
N       13.53975917      12.47881212       7.32797874      -0.00003212       0.00000444       0.00000100      -0.56945029      -0.32059795       0.82923778
N        2.19014677       8.59155631       9.58971351      -0.00000143       0.00000646      -0.00001857      -0.07947882      -0.82711662       0.20437859
N       15.03284627       6.56773969       6.33846709       0.00002768      -0.00003470       0.00001798      -0.04992899       0.28156392       0.99806649
Pb       0.23901773       2.90428448       6.40274506      -0.00001543      -0.00000006       0.00000407       1.40125222       0.10559139       1.98708168
Pb      18.12744746      10.71497959       9.43142382       0.00000376       0.00000536      -0.00000838       1.81500460      -2.32501816       0.67283394
Pb       8.10829212       8.64848475       6.48992775      -0.00000079      -0.00000703       0.00001322       0.80916267      -0.01262343      -1.63555161
Pb      10.26847989       4.99614208       8.86093523       0.00000205       0.00000873       0.00000644       0.41909958       2.99444952      -0.30638013
I       39.43951823       4.17108392      10.04925814       0.00000297      -0.00000882      -0.00000400      -0.72278584      -0.76963106       0.39529512
I       39.28007311       8.29905702       7.76421484      -0.00001009      -0.00000225       0.00000068      -0.73027798      -0.70016221      -0.60879523
I        9.07694334      10.64812218       8.87834131       0.00000508      -0.00000043       0.00000788      -0.57739216      -2.24264694       2.34615716
I        9.30438650       2.99711010       6.48282836       0.00000023      -0.00000589      -0.00001726       1.12573613       1.26639734      -0.58923704
I       17.24277294       1.14691616       6.95346733      -0.00000231      -0.00000655       0.00000572      -0.22410667      -1.58203107       0.68043489
I        1.12485732      12.47322726       8.87858144       0.00000952       0.00000362      -0.00000020       1.64593066       1.12657716       2.63221515
I       11.16772334       7.16106055       6.55767352       0.00001121      -0.00000784      -0.00000697      -0.81394695       1.40903642       2.53007933
I        7.20902349       6.48267768       8.79517971      -0.00001368       0.00001023      -0.00000582       0.44336601       1.66193024      -0.64031596
I        3.15105238       4.06877872       6.24747193       0.00000374       0.00000678      -0.00000723       0.05878820       0.84752275      -1.88156800
I       15.22715184       9.56170929       9.07080459      -0.00001048       0.00000428       0.00000002      -0.75582731       2.72070962       1.85197858
I        5.23566039       9.90588359       6.67526516      -0.00000346      -0.00000034       0.00000009      -1.34915748       0.60743655       3.46243322
I       13.12031897       3.72117848       9.19373361       0.00000991      -0.00001049      -0.00000712      -1.18516975       0.15968733       0.62211695
H        6.66430084       0.91786442      13.51496459       0.00000535       0.00000662      -0.00002387       0.01348756      -0.00697391      -0.08163438
H       11.43553705      12.67854690      11.45001636      -0.00001355       0.00001200      -0.00000073       0.01238663       0.07876214      -0.02195084
H        1.20530765       6.90066504      13.39348098      -0.00001345       0.00000459      -0.00001091       0.09010796      -0.00433321       0.23033450
H       16.88389837       6.69071380      11.55214759       0.00001436      -0.00001844       0.00002202       0.00816012       0.06069885       0.10902581
H        6.65724449       2.83675751      16.93004171       0.00000068       0.00000986      -0.00000580       0.15593213      -0.05937362       0.01412257
H       11.37334503      10.75338038      10.14625105      -0.00000647       0.00001490       0.00001317       0.00331915      -0.24901483       0.07315283
H        3.04324739       6.12338750      17.10295163       0.00000394      -0.00001534      -0.00002699       0.03251658       0.12611925       0.12750931
H       14.94895401       7.42690436      10.50004799       0.00000388       0.00002059       0.00000087       0.06309781      -0.16419906      -0.03593251
H        3.78327755       1.63623377      13.89138755      -0.00000668      -0.00000142      -0.00000974       0.07144899       0.01605000       0.09606796
H       13.07672645      10.39331680      10.41164624      -0.00000152       0.00001438      -0.00000311      -0.09899506       0.10005527      -0.11055542
H        3.97445974       7.49095968      17.69067503       0.00001633       0.00000166      -0.00000448       0.07027093       0.09535851       0.15306976
H       14.00854476       6.04202002      11.03082180      -0.00000881       0.00002306      -0.00000573       0.26992916      -0.12577436       0.09204856
H        5.06988196       3.20255202      12.40520634      -0.00000680      -0.00000302       0.00000386      -0.03452292       0.04889493       0.03728716
H       14.27704170      11.92091849      12.00762123       0.00000099       0.00000839       0.00000955       0.01148629       0.08210394       0.04672730
H        4.10852942       7.51720435      13.00892986      -0.00001986      -0.00001816      -0.00001223       0.03779586      -0.00060150      -0.03160272
H       15.17816966       4.44923091      12.58010072      -0.00000190      -0.00000157      -0.00000670       0.01273549       0.16031361      -0.04515167
H        6.79134929       2.86309840      12.24818991      -0.00001132       0.00000530      -0.00001192       0.00619085      -0.09438589      -0.24671887
H       13.37814071      13.33202121      12.54163965       0.00000088      -0.00001914      -0.00001961      -0.03762979      -0.18563569       0.01984311
H        3.17723429       6.14965404      12.42129083       0.00000994      -0.00002112      -0.00000985      -0.14618390       0.04750903      -0.08882955
H       14.81490057       7.40072632      15.18178949       0.00000173       0.00001872       0.00000158       0.00179629      -0.03182704      -0.14768901
C        5.76764494       1.53246810      13.37849877       0.00001261      -0.00000185       0.00003613       0.28124120      -0.13505796      -0.03650712
C       12.33288124      12.05598076      11.36323447       0.00001466      -0.00000925      -0.00001181       0.64370791      -0.13644982      -0.28066860
C        2.12529005       7.47867755      13.53463217      -0.00000274       0.00000401       0.00000130      -0.22563051      -0.58649439      -0.05678101
C       15.96686183       6.09813684      11.64324093      -0.00002840      -0.00000298      -0.00000050       0.30204508       0.27252800      -0.18012301
N        4.65878505       1.11410064      13.94507023      -0.00003012       0.00001416      -0.00001864       0.65970151       0.56950820      -0.49104153
N       12.25538821      10.97382113      10.62062334       0.00002799      -0.00003054      -0.00001277      -0.65463317      -0.04847510      -0.04692650
N        3.08017241       7.00157128      17.63632812       0.00000610       0.00001927       0.00000367      -0.39639783      -0.18189245      -0.00469430
N       14.89864881       6.54147251      11.02017214       0.00001711      -0.00003560       0.00001865       0.05447029      -0.35366805       0.21521784
N        5.88207203       2.62745355      12.65995585       0.00001806      -0.00000883       0.00001434       0.62328568       0.53307090      -0.34359383
N       13.40556833      12.45259111      12.00969986      -0.00000359       0.00000927       0.00001914      -0.95845841       0.17416062      -0.30988485
N        3.21422208       7.02784145      12.95465631       0.00002056       0.00004914       0.00002976      -0.65266744       0.34842439      -1.01364335
N       16.01754797       5.00255586      12.36815528       0.00000267       0.00002450      -0.00002363      -0.03229977       0.56307056       0.95726850
Pb       0.10482070       2.87807028      11.08443871      -0.00000239       0.00000257       0.00000340       1.18826771      -0.30239489      -0.28492097
Pb      17.99331738      10.68876737      14.11313219      -0.00000978      -0.00000528      -0.00000731      -1.64856265       1.50207866       0.93840734
Pb       7.97415425       8.62224497      11.17164731      -0.00001385      -0.00000850      -0.00000450      -0.91888215      -3.56386195      -3.68641908
Pb      10.13433104       4.96992175      13.54265453      -0.00000440       0.00000713      -0.00000419      -0.64495357       0.83205879       1.81890054
I       39.30540687       4.14484962      14.73099927      -0.00000282       0.00000834      -0.00001218      -1.25732288       2.39177346       0.68047322
I       39.14590847       8.27282058      12.44592825       0.00001068      -0.00000956      -0.00000528       1.30682837       2.27370696      -0.85730573
I        8.94280576      10.62189593      13.56005412      -0.00000338       0.00000515       0.00000497      -1.23999995       0.33121276       0.13030806
I        9.17024084       2.97088758      11.16453476      -0.00000250      -0.00000050       0.00000552       0.10676962      -2.07971616       0.87799917
I       17.10858377       1.12068405      11.63517196       0.00000897      -0.00000446       0.00000646      -0.21746846      -0.82934817      -0.02586630
I        0.99073793      12.44702593      13.56026898       0.00000112      -0.00000339      -0.00000167      -1.24273321       0.76147121      -0.10838177
I       11.03357729       7.13482860      11.23937491      -0.00000378      -0.00001173       0.00001515       0.22512744      -0.30000014      -0.13220548
I        7.07485923       6.45645288      13.47688503       0.00000008       0.00000293       0.00000620      -1.59145603       2.36218949      -1.30315725
I        3.01683143       4.04262302      10.92913305       0.00000743      -0.00000747       0.00001237      -4.05876386       2.33349928      -0.65308786
I       15.09302548       9.53549340      13.75251955       0.00000677       0.00001176      -0.00000649       0.09323547      -1.15095105      -0.74205715
I        5.10147935       9.87957051      11.35694994      -0.00001276       0.00001053       0.00000359       0.09574303      -0.60433385       1.23052358
I       12.98618649       3.69497816      13.87542809       0.00000198      -0.00000103       0.00000604       1.19116638      -1.34786731      -1.78056799
H        6.53006582       0.89149515      18.19677514      -0.00000838       0.00001202      -0.00000442       0.12254253       0.07860672      -0.01679505
H       11.30144840      12.65236024      16.13165928       0.00000718      -0.00001731       0.00000534       0.14577557      -0.00714607      -0.00311765
H        1.07124122       6.87429027      18.07504623      -0.00000160       0.00001429       0.00001298       0.27164388      -0.17086775      -0.23336835
H       16.74979265       6.66440754      16.23390811       0.00001655       0.00000705      -0.00000505      -0.07067218      -0.07053692       0.06244369
H        4.66026548       0.22708981      14.46501578       0.00001253      -0.00001881       0.00001310       0.03660615      -0.05997130       0.13068218
H       11.23922971      10.72715558      14.82794993      -0.00001546      -0.00000113      -0.00000907      -0.06114989       0.09852469      -0.03271788
H        1.15829365       8.82909985      14.69110630      -0.00000619      -0.00001185       0.00000167      -0.00942859       0.03675559       0.07197145
H       16.76333604       4.71817875      17.50898542       0.00002518      -0.00001230       0.00001310       0.06240830      -0.14433875       0.06629890
H        4.93579869       3.17630055      17.08705116      -0.00002058       0.00000458      -0.00000318       0.01532154      -0.15552124       0.15314160
H       12.94260246      10.36706645      15.09337322       0.00000174      -0.00001578      -0.00000233       0.00239727       0.10141953      -0.23473336
H        2.88999361       9.10589440      14.53109095       0.00002265      -0.00001537      -0.00000794       0.09032681       0.10364282      -0.09932002
H       15.04394581       4.42297262      17.26176756      -0.00000011       0.00000202      -0.00002048      -0.10293882       0.08861844      -0.17341916
H        3.64907444       1.61003049      18.57315900       0.00000813      -0.00000494      -0.00000486       0.01370127      -0.06191764      -0.11559889
H       14.14290812      11.89464233      16.68937597       0.00001628       0.00000515      -0.00000873       0.12935612       0.06996129      -0.21059982
H        2.75578012       9.07955293      19.21280525       0.00002846      -0.00000315       0.00001249       0.09481251      -0.01472143      -0.05968377
H       13.87441651       6.01587400      15.71250529      -0.00001205       0.00000101       0.00000863       0.06452964       0.02779788       0.11230572
H        4.52597409       0.20081925      19.14676983       0.00000569      -0.00001024       0.00002372      -0.05157058      -0.12343813       0.04052038
H       13.24403896      13.30579272      17.22332407      -0.00000079       0.00000542       0.00001439       0.06747207      -0.15257986       0.07687058
H        1.02408498       8.80268385      19.37274355      -0.00000881       0.00001018       0.00000867      -0.05777722       0.11339066      -0.16335866
H       16.89755117       4.74451168      12.82729194       0.00000842      -0.00000131      -0.00000010      -0.09731171      -0.08927170      -0.12222037
C        5.63344936       1.50615852      18.06031435       0.00000118       0.00002895      -0.00001629      -0.03195895      -0.35161593      -0.17934281
C       12.19877591      12.02976239      16.04491599       0.00000261      -0.00000905      -0.00000734      -0.25238626      -0.33192388      -0.00844651
C        1.99119202       7.45233759      18.21626523      -0.00003056      -0.00000678       0.00001337       0.57231139       0.85691822      -0.27648852
C       15.83272560       6.07187308      16.32496266      -0.00004090      -0.00001814      -0.00000477      -0.28883138      -0.48810297       0.07968089
N        5.74795471       2.60115822      17.34180476       0.00002188      -0.00002082       0.00001156       0.55039611      -0.81381367      -0.02352328
N       12.12127041      10.94758562      15.30233018       0.00000015       0.00003314       0.00001032      -0.07063460      -0.17645376       0.41722292
N        2.05602658       8.56546819      14.27146555       0.00000458      -0.00000929       0.00000102      -0.79159724      -0.17103047       0.39906126
N       15.88335081       4.97626478      17.04983945      -0.00001346       0.00003380      -0.00001208       0.16302362       0.02843251      -0.08211645
N        4.52455165       1.08784684      18.62685297      -0.00001468      -0.00001653      -0.00000232       0.02996682       0.25679907      -0.16791700
N       13.27145858      12.42635404      16.69140035      -0.00003212       0.00000445       0.00000101      -0.56945029      -0.32059795       0.82923778
N        1.92184618       8.53909822      18.95313513      -0.00000138       0.00000653      -0.00001856      -0.07947882      -0.82711662       0.20437859
N       14.76454568       6.51528161      15.70188870       0.00002768      -0.00003469       0.00001798      -0.04992899       0.28156392       0.99806649
Pb      -0.02928286       2.85182640      15.76616667      -0.00001545      -0.00000006       0.00000409       1.40125222       0.10559139       1.98708168
Pb      17.85914687      10.66252151      18.79484543       0.00000376       0.00000535      -0.00000837       1.81500460      -2.32501816       0.67283394
Pb       7.83999153       8.59602667      15.85334936      -0.00000078      -0.00000703       0.00001322       0.80916267      -0.01262343      -1.63555161
Pb      10.00017930       4.94368400      18.22435684       0.00000205       0.00000872       0.00000645       0.41909958       2.99444952      -0.30638013
I       39.17121763       4.11862584      19.41267976       0.00000299      -0.00000884      -0.00000400      -0.72278584      -0.76963106       0.39529512
I       39.01177251       8.24659894      17.12763646      -0.00001007      -0.00000226       0.00000067      -0.73027798      -0.70016221      -0.60879523
I        8.80864275      10.59566410      18.24176292       0.00000508      -0.00000044       0.00000789      -0.57739216      -2.24264694       2.34615716
I        9.03608591       2.94465202      15.84624997       0.00000023      -0.00000589      -0.00001725       1.12573613       1.26639734      -0.58923704
I       16.97447235       1.09445808      16.31688894      -0.00000231      -0.00000656       0.00000573      -0.22410667      -1.58203107       0.68043489
I        0.85655673      12.42076918      18.24200305       0.00000953       0.00000360      -0.00000020       1.64593066       1.12657716       2.63221515
I       10.89942275       7.10860247      15.92109513       0.00001121      -0.00000785      -0.00000696      -0.81394695       1.40903642       2.53007933
I        6.94072290       6.43021960      18.15860132      -0.00001368       0.00001023      -0.00000581       0.44336601       1.66193024      -0.64031596