96
Lattice="12.587025419656658 -0.09920126117387397 -0.42676853216076577 0.10563355282997475 12.757082585241337 0.15123959237195272 -0.19040925442741272 -0.14774644617549307 12.59233202355909" Properties=species:S:1:pos:R:3:forces:R:3 energy=-457.3115235679083 stress="1.1593307644558384e-09 -7.062428891600816e-08 -6.948528616179008e-08 -7.062428891600816e-08 -5.726564163430254e-08 1.2710602245322564e-08 -6.948528616179008e-08 1.2710602245322564e-08 6.180905429785088e-08" free_energy=-457.3115235679083 pbc="T T T"
H        9.73410381      11.88624436       2.32396331      -0.00001187      -0.00001516       0.00000581
H        7.62920020       5.52826647       1.95911159      -0.00001287       0.00000917      -0.00000816
H        8.39607654       5.45756211       7.37672500       0.00000444       0.00002809      -0.00003022
H        8.77661858      11.80905984       9.49866512      -0.00000989       0.00001448      -0.00000801
H        8.47029839      11.63022175       4.25812840       0.00000190      -0.00000441      -0.00000390
H        8.88889988       5.29720150       0.01912887      -0.00002042       0.00000073       0.00000787
H        2.08159244      11.60605748      10.76758293       0.00000504      -0.00001262       0.00001501
H        6.97321619      10.37058394       9.25001411       0.00000905       0.00002582      -0.00000508
H        3.18750157       3.18467638       2.78514062      -0.00002046       0.00000495      -0.00001691
H        1.54941473       9.58884279       1.86863557       0.00000421       0.00002290       0.00001012
H        1.22045319      10.21451222      10.13970577       0.00000920      -0.00001115      -0.00001374
H        7.74786878       9.46532889       7.95126902      -0.00001264       0.00004365       0.00004154
H        0.89813871       3.91700872       3.40994237      -0.00000674      -0.00000299       0.00001998
H        3.85062044      10.29783756       1.26065221       0.00000237       0.00000263       0.00001099
H        1.78776973       9.51621855       7.82487446      -0.00001011      -0.00002455      -0.00001409
H        2.75875995       3.10960187       9.42117637      -0.00000512      -0.00000767      -0.00002090
H        9.45708901      10.45370372       0.51997354      -0.00001210       0.00001264       0.00001679
H        4.48942551      11.68859060       2.11502407      -0.00001071      -0.00000897      -0.00000469
H       10.17552184       3.98411546       7.59078955      -0.00003430      -0.00001809       0.00002024
H        1.49330304       4.02476522      10.23811065      -0.00001643      -0.00000277       0.00001160
C        8.99498975      11.08114760       2.38183567       0.00001702       0.00003590      -0.00003199
C        2.62535084      11.13049912       2.67271384      -0.00003649      -0.00005371      -0.00005645
C        2.60628016      11.05686866       8.89131983      -0.00000669       0.00000929       0.00003028
C        1.96605998       4.68829336       8.39149656      -0.00001145      -0.00002705       0.00005026
N        3.18144530       3.97677051       2.13716683       0.00004539      -0.00001563      -0.00001766
N        1.56845985      10.36523171       2.53510016       0.00004145       0.00000272      -0.00000786
N        1.93443350      10.93115102      10.01234805      -0.00000741       0.00001882       0.00002863
N        7.76685487      10.24164142       8.61782919      -0.00002040      -0.00007240      -0.00004720
N        1.02666774       4.64531373       2.70808014       0.00002947       0.00000706      -0.00002029
N        3.73404155      11.01141246       1.97952660       0.00002521       0.00002542       0.00001283
N        9.37975208       3.85327761       8.21990040      -0.00001837       0.00001158       0.00001878
N        2.10787042       3.89927140       9.43020981      -0.00000478       0.00001083      -0.00003352
Pb       5.37444944       1.20955619      11.65150990       0.00000744       0.00000872       0.00000410
Pb      -0.91511477       1.25922141      11.86088073      -0.00000257       0.00000649      -0.00000132
Pb       5.43091905       7.66378921       5.34110115       0.00000059       0.00000459       0.00000068
Pb       5.47361911       1.28343824       5.35134403      -0.00001064       0.00000014       0.00001129
I        8.48967268       1.48593406      10.88336921       0.00002558       0.00000895       0.00000183
I        2.32824599      13.74530802      12.38765051       0.00000809      -0.00000747       0.00000396
I        2.29138230       1.60942368       4.80059127       0.00001051       0.00000110      -0.00000594
I        8.61134890       1.01246770       5.72684467       0.00000130      -0.00000351       0.00001040
I        5.61704443      10.78837157      11.45390661      -0.00001616       0.00001222      -0.00001124
I        5.34051631       4.55474824      -0.68562362      -0.00000156      -0.00000992       0.00000765
I        5.71260003       4.48263740       5.13437053       0.00000385       0.00000509       0.00000165
I        5.24490906      10.86046197       5.63394057      -0.00000550      -0.00000151      -0.00000481
I        6.10574356      13.83308918       2.33952736       0.00000399       0.00000364      -0.00001414
I       -1.43535347       1.66875816       2.39863767      -0.00000304       0.00000991      -0.00000762
I       -0.38854666       1.05182704       8.69782450      -0.00000027       0.00000615       0.00001135
I        4.76292801       1.54531931       8.48143131       0.00000412      -0.00000006       0.00000492
H        2.19781407       5.58100846       1.29385106       0.00000131       0.00002286       0.00000520
H        2.57831993      11.93270312       3.41573112       0.00000753       0.00000491       0.00002995
H        3.34537375      11.86197899       8.83338972       0.00001009       0.00000588      -0.00001744
H        1.24038749       5.50394240       8.46854477       0.00002342      -0.00001661      -0.00000440
H        3.97725185       4.10758179       1.50809775      -0.00002824      -0.00000620       0.00000646
H        0.77484187      10.49428744       3.16728811      -0.00001702      -0.00000399      -0.00000077
H        6.48095628       5.21439803       8.67168789      -0.00001761       0.00003402       0.00000514
H        2.50009741       5.27276332       6.52858243      -0.00000821       0.00003794      -0.00003548
H        7.60912982      10.23873975       3.63014687      -0.00002096      -0.00004540      -0.00000492
H        9.72662430       3.87702563       0.61370489      -0.00001149      -0.00000145       0.00000950
H        7.09653917       3.79350254       9.49285639       0.00001729       0.00000297      -0.00002920
H        3.33794987       3.85272854       7.12331859      -0.00000909       0.00000811      -0.00000145
H        8.17645497       9.54058985       1.31527104       0.00002129       0.00001262      -0.00000012
H        9.14732255       3.13365725       2.91146144       0.00001237      -0.00002686       0.00001325
H        9.38584467       3.06115647       8.86784075      -0.00000959       0.00004106      -0.00004905
H       10.04904067      10.17454113       7.34339494      -0.00000160      -0.00001878      -0.00001922
H        0.28261046       5.33789140       2.58871617       0.00001969      -0.00000147      -0.00000208
H        7.88194834       4.04884653       3.72850010      -0.00002364      -0.00000519       0.00002185
H        3.06837902      10.42930862       7.02950014      -0.00003317      -0.00000226       0.00002200
H       10.68773778      11.56523463       8.19792287       0.00006043       0.00002392       0.00001403
C        2.13735958       4.76239987       2.01775905      -0.00004357      -0.00001006       0.00003151
C        8.35479167       4.71255512       1.88197268       0.00001499      -0.00002243      -0.00001428
C        8.33566537       4.63892529       8.10060359       0.00004387      -0.00007087       0.00003372
C        8.82369876      11.00695135       8.75554775       0.00002621       0.00000948       0.00000673
N        8.32312767      10.95537008       3.50284717       0.00004105       0.00004236       0.00000997
N        9.02466630       4.60225064       0.75814526      -0.00001408      -0.00000621       0.00001001
N        7.22502528       4.52182628       8.79100361       0.00000772      -0.00001802      -0.00000779
N        2.63592350       4.57790581       7.26767193      -0.00000546      -0.00002741       0.00002879
N        8.84035614      10.31934773       1.32479405      -0.00001749      -0.00004226      -0.00000218
N        8.49649771       3.92337902       2.92058161       0.00003984       0.00003061      -0.00004781
N        2.45165527      10.29498977       7.83433479       0.00004066       0.00002275      -0.00001879
N        9.93240645      10.88801342       8.06235995      -0.00007567       0.00000173       0.00001831
Pb      -0.95782153       7.63957711      11.85065341       0.00000177      -0.00001176       0.00000251
Pb       5.33962060       7.58994285      11.63325142       0.00001385      -0.00000731       0.00000141
Pb      -0.82382693       1.33307055       5.56873232      -0.00001489      -0.00000022       0.00000037
Pb      -0.85863619       7.71343524       5.55046823      -0.00000987      -0.00000580      -0.00000460
I        2.22926655       7.89959532      12.40833293      -0.00000346       0.00000630       0.00000462
I        8.48749139       7.33032880      11.04270075       0.00001652      -0.00001176       0.00000393
I        8.61800559       7.92382852       5.89873331       0.00000727      -0.00000484       0.00001011
I        2.28920522       7.45373650       4.95986335       0.00000238      -0.00000014       0.00000372
I       -0.67616594       4.45841881      11.64386098       0.00000492       0.00001636       0.00001439
I       -0.95339480      10.98399408      -0.44885032      -0.00000350      -0.00001666      -0.00000456
I       -0.58133542      10.91187446       5.37117618       0.00000913       0.00000392      -0.00000433
I       -1.04821303       4.53049935       5.82386474      -0.00000263       0.00000055      -0.00000380
I       11.28914946       7.41448621       1.98889798      -0.00000786      -0.00000137       0.00000666
I        6.14638443       7.98799104       2.21795855      -0.00000365       0.00000061       0.00001176
I        4.90041835       7.39013123       8.49845390       0.00000328       0.00000384      -0.00000826
I       -0.24234198       7.96371806       8.72751654       0.00000464      -0.00000146      -0.00001819
