96
Lattice="12.287790825560698 0.37083489883544507 0.07693646871673301 0.17527291968424336 12.292194410667586 -0.06320892572560112 -0.08145047254972783 0.06640626233588998 12.692166059237323" Properties=species:S:1:pos:R:3:forces:R:3 energy=-419.1817613066577 stress="4.1628794699900666e-08 -6.571454371898694e-08 2.4733688831233038e-08 -6.571454371898694e-08 -9.034041591756986e-08 1.1500867378660326e-08 2.4733688831233038e-08 1.1500867378660326e-08 1.0375490993243001e-07" free_energy=-419.1817613066577 pbc="T T T"
I        6.10089231       2.12778323       4.14777780       0.00000087      -0.00000301      -0.00000291
I        5.19884276      14.97041483      10.42129262      -0.00000899      -0.00000703       0.00000194
I        4.81696939      11.63672184       7.51051249       0.00001235      -0.00000159      -0.00000910
I        6.48271936       5.46146607       7.05859003      -0.00000487      -0.00000032       0.00000550
I       -0.15994699      14.01224370      10.39190727       0.00002045      -0.00000577       0.00000257
I       11.45964962       3.08593124       4.17716577       0.00000655      -0.00000030       0.00000110
I       10.87323287       5.67602103       7.58056336       0.00000293       0.00000239       0.00000155
I        0.42647103      11.42212212       6.98851940       0.00001232       0.00000645      -0.00000961
I        8.79751164      13.94498462      13.37551914       0.00000779      -0.00000079       0.00000652
I        2.60353581       7.58288304       7.51745079      -0.00000806      -0.00000053       0.00000421
I        2.46466836       3.18376222       7.04471864      -0.00000563       0.00001016       0.00000154
I        8.83507267      13.91440966       7.52433097      -0.00000600      -0.00000917       0.00001073
H        3.75797760       6.16288397       3.21188772       0.00001425       0.00000282       0.00000931
H        9.47433007       6.76730686       5.04474565      -0.00000146      -0.00000489      -0.00000213
H        9.98962672      12.49448632       3.21892618      -0.00000123      -0.00000332       0.00000202
H        0.86565669       6.08453578      10.43992486      -0.00000208       0.00002362       0.00000493
H        1.81399514      10.34021809      11.32346712       0.00000818       0.00000989      -0.00002810
H        9.48578990       6.75788104       3.24564451      -0.00000006      -0.00000044       0.00001064
H        7.87020305       4.37954645      11.39347270       0.00000160       0.00000013       0.00000112
H        1.32168904       4.59424975       9.55115505      -0.00000492       0.00001584       0.00000091
H        4.20256126       4.68217356       4.12220021      -0.00000479       0.00001287       0.00001026
H        7.98757981       7.18914308       4.13345385      -0.00000025      -0.00000101      -0.00000439
H       10.43408550      11.01359710       4.12900811       0.00001279      -0.00000178       0.00000525
H        1.31017483       4.60381481      11.35025294      -0.00001775      -0.00000282       0.00000360
H        1.49381480       5.95562297       4.09818364       0.00000665       0.00000005      -0.00000828
H        9.34848946      12.54113613      11.30250200      -0.00000002       0.00001428       0.00002096
H        7.72540543      12.28719530       4.10503466       0.00002667      -0.00001187      -0.00000769
H        1.84115634      10.89596643       4.91646434       0.00000217       0.00000218      -0.00000830
H        1.94058363       4.56582999       4.95031088       0.00000357       0.00000166      -0.00001363
H        9.35924428      12.53230632       9.61873886      -0.00001375      -0.00001728       0.00004643
H        8.17206056      10.89729085       4.95703644       0.00000388       0.00000993       0.00001408
H        3.24781522      10.46173878       4.08580119      -0.00003953       0.00002922       0.00000296
H        1.95132176       4.55694059       3.26654519      -0.00001354       0.00001165       0.00000504
H        9.30409739       4.50104982       4.15593956       0.00002915      -0.00001058       0.00000692
H        8.18289636      10.88858110       3.27327125      -0.00002783      -0.00000455       0.00003405
H        1.85195017      10.88721007       3.23269704       0.00000481      -0.00001276       0.00002539
C        2.41021126      10.52956192      10.42663874      -0.00006527       0.00003303       0.00000656
C        8.88952560       6.56858398       4.14245030      -0.00000661       0.00001206      -0.00001379
C        8.46647946       4.56888871      10.49668508       0.00000228       0.00001467       0.00001701
C        1.50050444       5.19258866      10.44872960       0.00002539      -0.00002009      -0.00001531
Pb       5.64985343       8.54910747       7.28449996       0.00001451      -0.00000578       0.00001220
Pb       5.73750089      14.69518622       7.25293046       0.00000824      -0.00000164       0.00000260
Pb      -0.44713950      14.54297216      13.56055221       0.00000244       0.00000298      -0.00000628
Pb      -0.40639363      14.50975719       7.21446703      -0.00000030       0.00000631      -0.00000814
N        2.14257295       5.14150638       4.10661868      -0.00001838       0.00000055       0.00000103
N        9.15719172      11.95661898      10.46240853      -0.00001136       0.00004492      -0.00004365
N        8.37412614      11.47304753       4.11341983      -0.00001496       0.00001783      -0.00004083
N        2.42345993      11.09743672       4.07720973       0.00003685      -0.00006999      -0.00000440
I        5.89632984       8.05158934      10.46195469       0.00000700      -0.00000500       0.00000602
I        5.40339498       9.04666142       4.10706895       0.00000089      -0.00001352      -0.00000628
I        6.43888477       5.49726416      13.89956008      -0.00002146       0.00000197      -0.00000599
I        4.86089554      11.60093645       0.66950103       0.00000778      -0.00000060       0.00001025
I        0.04464889       8.08844138       4.07768120      -0.00000328       0.00000139      -0.00000291
I       11.25510699       9.00968686      10.49134271      -0.00000092      -0.00000495      -0.00000592
I       12.75182498      11.76235986       1.21423500      -0.00000755       0.00000394      -0.00000630
I       -1.45210575       5.33581329      13.35481006       0.00001253      -0.00000155      -0.00000239
I        8.69619655       9.51527660       7.05153536      -0.00002256       0.00002199       0.00000371
I        2.67747368      15.44534087       1.13032244       0.00000711      -0.00000216      -0.00000271
I        2.56600593       7.61352309      13.36863021      -0.00000744      -0.00001475      -0.00000197
I        8.73376119       9.48467537       1.20035016      -0.00000086      -0.00000193      -0.00000696
H        3.31216827       9.90902068      10.43556482       0.00004103      -0.00001162       0.00001696
H        7.09725372      12.41616508      10.44686500      -0.00001325      -0.00001658      -0.00000633
H        9.36844587       3.94836008      10.50568085       0.00000003      -0.00000602       0.00000667
H        1.93133314      13.14985001       4.06342257       0.00001602      -0.00000627      -0.00000341
H        3.74650194       6.17244491       5.01098618       0.00000378      -0.00001318       0.00001346
H        7.55315489      10.92592522       9.55795070       0.00000626      -0.00000229       0.00000433
H        9.97808026      12.50374181       5.01802804      -0.00001390      -0.00001150      -0.00002613
H        3.41808011      12.72794430       4.97469283      -0.00002666       0.00000271      -0.00003159
H        1.82536460      10.33086364       9.52436466       0.00001304      -0.00000495       0.00001184
H        7.54167721      10.93533085      11.35705209      -0.00000180      -0.00001011       0.00000867
H        7.88169924       4.37017340       9.59437254      -0.00000086      -0.00000023      -0.00000488
H        3.42953569      12.71860592       3.17559098       0.00000810       0.00000202       0.00000444
H        3.40224904      12.16288231       9.58250745       0.00000660       0.00002526       0.00001243
H        7.90821073       4.92646950       3.30285141       0.00003018       0.00000205       0.00003740
H        8.05183928       6.63641245      10.48324792       0.00001442      -0.00000747      -0.00001041
H        3.57436250       4.81099642      10.46399908       0.00000476       0.00001280       0.00000256
H        3.39148789      12.17168604      11.26627244       0.00001894      -0.00000529       0.00002373
H        7.89745337       4.93529794       4.98661791      -0.00000360      -0.00000588      -0.00001581
H        9.45850845       6.20222973       9.65258126       0.00002125       0.00001269      -0.00000688
H        3.11689093       6.20969305      11.29563013       0.00000784       0.00001080       0.00001112
H        1.99559326      12.59708870      10.41318684       0.00001562      -0.00001380       0.00000240
H        9.80587578      11.14244375      10.47082351       0.00001533      -0.00003385       0.00000576
H        9.44772804       6.21101332      11.33634487       0.00000622       0.00000334       0.00000791
H        3.12765709       6.20080541       9.61186590      -0.00000638       0.00001493      -0.00000198
C        3.56768570       5.57410266       4.11341455       0.00002453      -0.00003017      -0.00001023
C        7.73203428      11.52416809      10.45557652      -0.00000204       0.00002511      -0.00002493
C        9.79926289      11.90556429       4.12034544       0.00000852       0.00000353       0.00001802
C        2.83326942      12.52927577       4.07238810      -0.00000304       0.00003499       0.00001566
Pb       5.69678114      14.72840703      13.59901458       0.00000085      -0.00000525      -0.00000368
Pb       5.60915631       8.58229998      13.63059343      -0.00000008       0.00000318       0.00000401
Pb      -0.49403863       8.36365203       7.24604135       0.00000503      -0.00000473       0.00000633
Pb      -0.53473675       8.39686319      13.59213123      -0.00000742      -0.00000080       0.00000018
N        2.81996797      11.96141781      10.42177974      -0.00004740      -0.00000112      -0.00004703
N        8.47973774       5.13673797       4.14734132      -0.00005154       0.00000868      -0.00004572
N        8.87622015       6.00074893      10.49184284      -0.00003837      -0.00000257      -0.00000584
N        2.92563290       5.62513646      10.45555328      -0.00001231      -0.00004144       0.00000001
