96
Lattice="15.721640874468395 0.055447948865980604 -0.5020348514753179 0.05000088989344354 14.894060148574935 0.107673279720717 -0.21073813132119626 0.06097281490454503 8.505233126742676" Properties=species:S:1:pos:R:3:forces:R:3 energy=-419.1557185716834 stress="0.0009417677351723002 0.0002744263731021862 -0.0002722759597848081 0.0002744263731021862 0.0018291224525977395 0.00035065106641155654 -0.0002722759597848081 0.00035065106641155654 0.0009171295973441454" free_energy=-419.1557185716834 pbc="T T T"
I        6.95748675       0.16081770       2.60295732       0.00000437      -0.00000660      -0.00000259
I        1.31948970       5.00382922       1.94069398      -0.00000487       0.00000910      -0.00000760
I        6.58902606       0.41086845       6.75390612      -0.00001070       0.00000527       0.00000981
I        1.47723909       4.81476866       6.29497430      -0.00000190      -0.00001327       0.00001502
I        5.29231151       3.74158419       3.93901372       0.00000025      -0.00000387       0.00001476
I        2.77389005       1.48402735       9.10986701       0.00000543       0.00000644       0.00000651
H        1.96124929       0.82515406       5.86743695       0.00001740       0.00001250       0.00000798
H        4.71335568       3.77866234      -0.74147417       0.00001025      -0.00000296      -0.00000119
H        2.71651618       0.04641222       4.43728532      -0.00000314       0.00001029       0.00000488
H        5.56046062       5.11824102       0.10627663      -0.00000338       0.00002429       0.00002020
H        3.56350693       1.38596146       5.28519936       0.00002416       0.00001644      -0.00000452
H        6.31560725       4.33933867      -1.32385299      -0.00001498      -0.00000624       0.00000957
H        2.46834199       2.16641441       3.24402669       0.00001312       0.00001062      -0.00000481
H        7.28142853       3.55598060       0.76877968      -0.00000900      -0.00002039      -0.00000692
H        1.75343042       2.87900368       4.59544697       0.00002458      -0.00002913      -0.00003511
H        6.52347710       2.28562308      -0.05172780      -0.00001126      -0.00002554       0.00000286
H        0.99546728       1.60867834       3.77489577      -0.00003834      -0.00001839      -0.00001706
H        5.80854933       2.99825809       1.29965919       0.00000335       0.00000349       0.00000398
C        2.58962431       0.98514948       4.98662902      -0.00003194      -0.00002409      -0.00002026
C        5.68727626       4.17945210      -0.44299352       0.00000372      -0.00001931      -0.00001097
Pb       4.70871943      13.78127930       9.04179904      -0.00000300      -0.00000563      -0.00000771
Pb       0.77992685      13.83752679       9.16085490      -0.00002601       0.00001369      -0.00000546
N        1.91463476       1.97581218       4.09868384       0.00003458       0.00004856       0.00005018
N        6.36226326       3.18882980       0.44499849       0.00001423       0.00002556      -0.00002970
I        5.39362276       7.78966714       6.17848134      -0.00001258      -0.00000541      -0.00000544
I        2.72263162      12.32999268       6.97806396       0.00001749       0.00000965      -0.00000606
I        5.25768636       7.62208572       1.82949438       0.00000205      -0.00000526       0.00000829
I        3.06930619      12.43661207       2.82180501      -0.00000347      -0.00001269       0.00001321
I        6.97573610      11.19693767       0.55210611      -0.00000075      -0.00000164       0.00000087
I        1.35121997       8.86177393       4.09918955      -0.00001624       0.00000949       0.00000591
H        1.42119855       7.54009727       8.72279954      -0.00001118       0.00000966      -0.00000568
H        6.69524327      12.57950004       4.43362444      -0.00001272       0.00000448       0.00000170
H        0.58835938       8.89042221       7.87958738      -0.00000491       0.00000305       0.00000006
H        5.91108649      11.77429421       5.83365548       0.00000682      -0.00001703       0.00002637
H        2.20511105       8.34555119       7.32276881      -0.00001604      -0.00000505       0.00001795
H        7.52782662      11.22915743       5.27705680       0.00000119      -0.00000346       0.00000163
H        2.38011608      10.37713747       8.63321654      -0.00000684      -0.00000471       0.00000279
H        6.48288996      10.47573544       3.20133346      -0.00002522       0.00000151       0.00002517
H        3.12127286       9.09643849       9.45166946       0.00001429      -0.00000350      -0.00000624
H        4.99497423      11.02324440       3.70485970       0.00001411      -0.00001755      -0.00001172
H        1.63334078       9.64387304       9.95521618       0.00000755       0.00000175      -0.00000083
H        5.73608873       9.74254524       4.52335716      -0.00001673      -0.00002206       0.00000570
C        1.55712047       8.48844881       8.19240231       0.00002270       0.00000862      -0.00001148
C        6.55914724      11.63122005       4.96410467       0.00001976       0.00001570      -0.00001303
Pb       3.40752136       6.33841200       4.11474185       0.00001617      -0.00000702       0.00000066
Pb       7.33631607       6.28211486       3.99568091      -0.00001708       0.00000126       0.00000085
N        2.20806150       9.46613079       9.11190117      -0.00001964      -0.00000739       0.00000419
N        5.90817279      10.65352879       4.04464050       0.00003175       0.00003620      -0.00003095
I       14.81826388       0.18853420       2.35191497       0.00000912      -0.00000877      -0.00000153
I        9.18033058       5.03152606       1.68966761      -0.00000874       0.00000852      -0.00000464
I       14.44985627       0.43859694       6.50288861      -0.00000478      -0.00000253      -0.00000602
I        9.33805840       4.84248971       6.04395462      -0.00001404      -0.00000314      -0.00000815
I       13.15314185       3.76930350       3.68803356      -0.00000510       0.00000353      -0.00000076
I       10.63471683       1.51173885       8.85881054       0.00000725      -0.00000952       0.00001393
H        9.82200097       0.85277619       5.61633544       0.00002681       0.00001981      -0.00002263
H       13.42137875       5.14596184      -0.14481013      -0.00000164      -0.00001109      -0.00000306
H       10.57735969       0.07412310       4.18618357       0.00000557      -0.00000720       0.00001262
H       14.17645377       4.36692269      -1.57490681      -0.00001007       0.00001488      -0.00001468
H       11.42430409       1.41361231       5.03424550       0.00000232      -0.00002877      -0.00001148
H       12.57418188       3.80637603      -0.99246183       0.00002177       0.00000811      -0.00000126
H        9.61433150       2.90672797       4.34444865      -0.00001980      -0.00001669      -0.00002480
H       14.38425354       2.31328673      -0.30266910      -0.00001031       0.00002819       0.00000859
H        8.85635617       1.63646212       3.52380998       0.00000847       0.00001078       0.00000307
H       13.66936156       3.02602030       1.04868786       0.00001578       0.00000266       0.00000335
H       10.32927582       2.19417580       2.99303143      -0.00000415       0.00000615      -0.00000952
H       15.14225980       3.58365246       0.51777087       0.00000876       0.00000138       0.00001086
C       10.45043894       1.01282451       4.73558089       0.00001560       0.00003364       0.00002248
C       13.54813099       4.20713062      -0.69402522      -0.00003443       0.00002254       0.00000516
Pb      12.56952350      13.80897290       8.79073901       0.00002204      -0.00001260      -0.00000478
Pb       8.64074469      13.86525759       8.90983525       0.00001252      -0.00000611      -0.00000419
N        9.77552307       2.00355239       3.84765305      -0.00001031       0.00000659       0.00000728
N       14.22307846       3.21652575       0.19401339       0.00000672      -0.00004877      -0.00001542
I       13.25439988       7.81740377       5.92747547       0.00000421       0.00000368       0.00000096
I       10.58342498      12.35769238       6.72702440      -0.00000968       0.00000508       0.00001158
I       13.11852578       7.64977146       1.57846301      -0.00001078       0.00002016       0.00000451
I       10.93014622      12.46429645       2.57075696      -0.00000374      -0.00000399       0.00000321
I       14.83657384      11.22464314       0.30105206       0.00000002       0.00000065       0.00000015
I        9.21203179       8.88949520       3.84814988      -0.00000496       0.00000025      -0.00000015
H        9.28206883       7.56774062       8.47175850      -0.00000088       0.00000090       0.00000279
H       13.77196088      11.80210838       5.58256271      -0.00000129      -0.00001518       0.00002244
H        8.44897068       8.91807178       7.62881978       0.00002014       0.00000131      -0.00000094
H       15.38870491      11.25699870       5.02594555      -0.00002056      -0.00000545       0.00000500
H       10.06565116       8.37336770       7.07164141       0.00003326      -0.00000120      -0.00000598
H       14.55603902      12.60725502       4.18245384       0.00001122       0.00000342       0.00002640
H       10.98214438       9.12413315       9.20047746       0.00000454      -0.00002223      -0.00000179
H       14.34377294      10.50334459       2.95034673      -0.00002267       0.00001197       0.00000634
H        9.49427272       9.67145449       9.70429587      -0.00002453       0.00001284      -0.00001910
H       12.85585037      11.05093092       3.45377192      -0.00000722       0.00000348       0.00000621
H       10.24080549      10.40484189       8.38221530       0.00001987       0.00000758       0.00001658
H       13.59691435       9.77029617       4.27241265       0.00001473      -0.00001329      -0.00001342
C        9.41782376       8.51614504       7.94141400      -0.00006641       0.00000907       0.00000810
C       14.41999881      11.65900375       4.71300004       0.00001792       0.00000603      -0.00001285
Pb      11.26834402       6.36614055       3.86372237       0.00001444      -0.00001585      -0.00000468
Pb      15.19713576       6.30985785       3.74468855      -0.00002785      -0.00000084      -0.00000987
N       10.06886398       9.49379995       8.86087034       0.00003265      -0.00000690      -0.00000001
N       13.76903225      10.68123283       3.79361508       0.00000079      -0.00001255      -0.00001570
