40
Lattice="12.558583898530216 -0.049714492947736465 0.1228696771552655 0.046174367073412534 12.401584541958051 0.18484684535769463 -0.11525530346024182 0.2839874900121871 12.399493256603725" Properties=species:S:1:pos:R:3:forces:R:3 energy=-123.32954256095248 stress="0.0016931816398455394 -1.3918958803481843e-07 1.4076890753126499e-05 -1.3918958803481843e-07 0.0014738529781545497 -0.00027176221277245785 1.4076890753126499e-05 -0.00027176221277245785 0.0014803312803989587" free_energy=-123.32954256095248 pbc="T T T"
Cs      15.09191471      10.70704895       6.23423406       0.00000125       0.00001306      -0.00000661
Cs       8.78424452       5.49952285       7.04097766      -0.00001087       0.00000580      -0.00000248
Cs       8.73004667       5.94673987      12.93306577      -0.00000515      -0.00001467      -0.00000242
Cs      15.03780287      11.15433502      12.12626904      -0.00001065      -0.00000924       0.00000609
Cs      15.01117445       4.64830646      12.34155700       0.00002270       0.00001749      -0.00001183
Cs       8.74970426      11.84236737      13.33319840      -0.00001221      -0.00001044      -0.00000546
Cs       8.81075464      12.00558779       6.82575560       0.00000526      -0.00000278       0.00000365
Cs      15.07234624       4.81156020       5.83411928       0.00000065      -0.00000615       0.00000012
Pb       5.60858966       2.15101130       9.42978765      -0.00000139       0.00001512      -0.00000013
Pb      11.91099712       8.32693602       9.58362517       0.00000712      -0.00002619       0.00001612
Pb       5.63171619       8.35180839       9.52219971      -0.00001503      -0.00001876      -0.00001651
Pb      11.88789303       2.12613486       9.49126296       0.00000561       0.00001210      -0.00000572
Pb       5.66626346       2.00899520       3.23004947      -0.00003358       0.00002624       0.00000658
Pb      11.96860237       8.18492981       3.38386793       0.00000985       0.00000067       0.00002962
Pb       5.68932166       8.20980162       3.32242176      -0.00000003      -0.00000356       0.00001972
Pb      11.94556292       1.98412647       3.29151520       0.00000160      -0.00000004       0.00000759
I        6.10123710       5.24163243      10.19569925      -0.00000997       0.00001230      -0.00000733
I       12.41698557      11.43333789       8.91998073      -0.00000388      -0.00000905      -0.00000740
I       17.72075434      11.41227007       8.97153919       0.00000534      -0.00001235       0.00002033
I       11.40500924       5.22051987      10.24735405       0.00000641       0.00001672      -0.00001022
I       15.04403098       7.84609218      10.10425359      -0.00000439       0.00000264       0.00000320
I        8.78789720      14.05391729      10.11762136      -0.00001368       0.00000533       0.00000382
I        8.77797147       8.80776003       9.06296939       0.00000372       0.00001543       0.00000145
I       15.03404534       2.59998286       9.04968699       0.00004087      -0.00001126       0.00000838
I       18.74054923      11.25071226       4.21125593      -0.00000137      -0.00002865      -0.00001070
I       12.45152759       5.09053537       2.62783138      -0.00000398       0.00001260      -0.00000925
I        5.08146357       5.40316771      14.95600806      -0.00000397       0.00001319       0.00000930
I       11.37041908      11.56330016      16.53949067       0.00001637      -0.00001197       0.00001817
I        8.70718531       7.99508057      16.22488555       0.00001248       0.00001089       0.00002253
I       14.96332709       1.78725284      16.21163641      -0.00000793       0.00001930       0.00001209
I       15.11477584       8.65876375       2.94234994      -0.00000021      -0.00000546      -0.00001206
I        8.85869755      14.86659409       2.95578005      -0.00000020       0.00000038      -0.00002545
I        5.13532309      13.91072338      12.72350421       0.00002473      -0.00000846       0.00001314
I       11.39740733       9.11442466      12.66529280       0.00000043       0.00001554       0.00000451
I       18.68661451       2.74322624       6.44380063      -0.00000832      -0.00001384      -0.00001856
I       12.42454455       7.53940939       6.50197888      -0.00000219      -0.00000287      -0.00002624
I        5.16993546       7.56792356       6.43130553      -0.00000716      -0.00000676       0.00000938
I       11.47817797      15.17322588       6.55802425      -0.00000464       0.00000588      -0.00001402
I       18.65210268       9.08603913      12.73593671       0.00000102      -0.00001821      -0.00000601
I       12.34385208       1.48060239      12.60934976      -0.00000460       0.00000003      -0.00001741
