320
Lattice="35.59208834274186 -0.061519118117657846 -0.09407899735174617 0.035891967059710296 20.770058509958517 -0.001492693068744977 0.05067019609639917 0.0012900385867093786 19.170895193143284" Properties=species:S:1:pos:R:3:forces:R:3 energy=-995.7548348471001 stress="1.4215147085826066e-08 -2.504381464751339e-09 -4.945396879894426e-09 -2.504381464751339e-09 -7.04436944683483e-09 2.026391562359683e-09 -4.945396879894426e-09 2.026391562359683e-09 -2.941257144601967e-08" free_energy=-995.7548348471001 pbc="T T T"
Cs       1.06805556       4.35964687       2.97365976      -0.00000246       0.00000661      -0.00000389
Cs       7.19229803      13.00183631       0.56052660       0.00000001      -0.00000779      -0.00000482
Cs      33.88668959       9.49545083       2.88658927       0.00001499       0.00000852      -0.00001504
Cs       9.96569354       7.80451743       0.55354502       0.00001050       0.00000823      -0.00000477
Cs       1.08072397       4.36000115       7.76638231      -0.00000165      -0.00001083       0.00000728
Cs       7.20498179      13.00216891       5.35324681      -0.00001635      -0.00000029       0.00000457
Cs      33.89938506       9.49578444       7.67931681      -0.00000091       0.00000193      -0.00001721
Cs       9.97839226       7.80482769       5.34628546       0.00000262       0.00000765      -0.00000712
Pb      31.90078944       5.11161915       0.49573348       0.00000470       0.00000368       0.00000078
Pb      11.95165033      12.18833977       2.94436954       0.00000492      -0.00000127      -0.00000266
Pb       3.04409935      10.35407074       0.57167439      -0.00000831      -0.00001518      -0.00000366
Pb       5.21624737       7.00746254       2.96252295       0.00000333       0.00000496       0.00000033
Pb      31.91346408       5.11197281       5.28847074       0.00000250      -0.00000395      -0.00000945
Pb      11.96433671      12.18869226       7.73707551      -0.00000124      -0.00000606       0.00002117
Pb       3.05676181      10.35435008       5.36439493      -0.00000549      -0.00000633      -0.00000605
Pb       5.22891133       7.00774747       7.75523964       0.00000432       0.00000913       0.00000665
I       30.78262171       6.96798080       2.89493695       0.00000278       0.00000307       0.00000670
I       30.86585276      10.30124872       0.49812141       0.00000072      -0.00000895       0.00000284
I        4.18133129      12.20650829       2.96494235       0.00000122      -0.00000050      -0.00001084
I        4.07901543       5.15501256       0.56926955       0.00000397      -0.00000306      -0.00000760
I       10.99977847       3.83001816       0.55108887       0.00000818      -0.00000052      -0.00000729
I       32.85263401      13.46997023       2.88906202       0.00000610       0.00000319       0.00000023
I        6.14448149       9.03096000       0.56356534       0.00000966      -0.00001066      -0.00000637
I        2.11586499       8.33056367       2.97061228      -0.00001500       0.00000630       0.00000748
I       34.64178134       6.55851553       0.48839797      -0.00000388       0.00000390      -0.00000147
I        9.21066043      10.74144536       2.95173789      -0.00000464       0.00000800      -0.00000692
I        0.30810506      11.81040221       0.57883211       0.00000903       0.00000912      -0.00000635
I        7.95222772       5.55111144       2.95541303       0.00000146      -0.00000933      -0.00000631
I       30.79530320       6.96832134       7.68768163      -0.00000637      -0.00000962       0.00000133
I       30.87851278      10.30155292       5.29085287      -0.00000827      -0.00000032      -0.00000103
I        4.19399536      12.20680867       7.75762682       0.00000418       0.00000780       0.00000800
I        4.09168212       5.15531054       5.36197717      -0.00000119       0.00000822       0.00001237
I       11.01246593       3.83031550       5.34379309       0.00000461       0.00001529      -0.00000382
I       32.86530060      13.47028827       7.68172271       0.00000541      -0.00000142       0.00001078
I        6.15715513       9.03125369       5.35629441       0.00000304      -0.00000792       0.00000115
I        2.12852526       8.33086353       7.76337068      -0.00000359       0.00001819      -0.00000978
I       34.65446673       6.55885609       5.28110263      -0.00001279      -0.00000364       0.00001381
I        9.22334812      10.74179187       7.74443451      -0.00001053      -0.00000379      -0.00000684
I        0.32078692      11.81071007       5.37152015      -0.00000205      -0.00000462       0.00000655
I        7.96489482       5.55140317       7.74812219       0.00000104       0.00000144      -0.00000124
Cs       1.09336635       4.36030142      12.55915059       0.00001228       0.00000928      -0.00001276
Cs       7.21763511      13.00247104      10.14595201      -0.00000147       0.00000916      -0.00000191
Cs      33.91205183       9.49610333      12.47201643      -0.00001151       0.00000822      -0.00000156
Cs       9.99104028       7.80518241      10.13898473       0.00000546      -0.00001495      -0.00000149
Cs       1.10605309       4.36062857      17.35183228       0.00000427       0.00000639       0.00001111
Cs       7.23028326      13.00280713      14.93869183       0.00001564       0.00000358      -0.00000890
Cs      33.92472510       9.49645333      17.26477310      -0.00000434      -0.00000794      -0.00001676
Cs      10.00372376       7.80547193      14.93169666      -0.00000096       0.00001496       0.00000462
Pb      31.92610327       5.11227084      10.08120024       0.00001448       0.00000745      -0.00001081
Pb      11.97699665      12.18899877      12.52980965      -0.00001121       0.00001622      -0.00000068
Pb       3.06942364      10.35468595      10.15711265       0.00000272       0.00000489      -0.00000833
Pb       5.24157560       7.00808556      12.54796062      -0.00000637       0.00000702       0.00000954
Pb      31.93876926       5.11264612      14.87390878       0.00001252      -0.00001585       0.00000174
Pb      11.98965575      12.18931209      17.32252807      -0.00000167      -0.00000019       0.00000822
Pb       3.08209993      10.35500798      14.94982144       0.00000816       0.00000018       0.00000145
Pb       5.25425436       7.00844852      17.34068870      -0.00000954      -0.00000469       0.00001081
I       30.80794784       6.96866293      12.48037691      -0.00000233      -0.00001201       0.00000269
I       30.89117134      10.30188772      10.08356432       0.00001641      -0.00000587       0.00000059
I        4.20666820      12.20715179      12.55034704       0.00000014      -0.00000771       0.00000906
I        4.10434482       5.15561542      10.15472584      -0.00000247       0.00001217       0.00000434
I       11.02513483       3.83065046      10.13652685      -0.00000291      -0.00000994      -0.00000018
I       32.87799536      13.47061446      12.47449949      -0.00000002       0.00000117      -0.00000545
I        6.16980536       9.03156478      10.14898950       0.00001431       0.00000479       0.00000644
I        2.14118088       8.33120582      12.55607053       0.00001211      -0.00000845       0.00000442
I       34.66710294       6.55915652      10.07385214       0.00000408      -0.00000390       0.00000122
I        9.23599825      10.74211564      12.53715850      -0.00000342      -0.00000576       0.00000583
I        0.33345200      11.81105696      10.16425435      -0.00000111      -0.00000776      -0.00000943
I        7.97755567       5.55174308      12.54082770       0.00000129      -0.00000110       0.00000052
I       30.82062625       6.96897096      17.27314042      -0.00000072       0.00000133      -0.00000360
I       30.90386617      10.30219410      14.87630653      -0.00000567       0.00000507      -0.00000357
I        4.21933991      12.20746542      17.34306691      -0.00000630       0.00000366       0.00000611
I        4.11701196       5.15597812      14.94746628       0.00000956       0.00000149      -0.00001161
I       11.03779693       3.83098744      14.92921162       0.00000287       0.00000951       0.00000859
I       32.89063888      13.47093446      17.26718286       0.00000267       0.00000276       0.00000940
I        6.18250405       9.03190168      14.94170511      -0.00001598       0.00000146      -0.00000157
I        2.15386164       8.33155443      17.34880959       0.00000310      -0.00000788       0.00000940
I       34.67977457       6.55952534      14.86658815      -0.00000441      -0.00001722      -0.00000666
I        9.24866080      10.74242306      17.32987123      -0.00000056       0.00000225       0.00000495
I        0.34612281      11.81135570      14.95695314       0.00000684       0.00000868       0.00000054
I        7.99022401       5.55207571      17.33356344       0.00000483       0.00000309      -0.00000651
Cs       1.08599354      14.74469846       2.97294023       0.00000454      -0.00000081      -0.00000585
Cs       7.17434183       2.61683445       0.56127447      -0.00000355      -0.00001317      -0.00000503
Cs      33.90468830      19.88048870       2.88580514      -0.00001940       0.00000374       0.00000796
Cs       9.98368769      18.18954379       0.55278033      -0.00000359      -0.00000953       0.00000243
Cs       1.09867532      14.74500761       7.76563848      -0.00000251      -0.00000433       0.00000386
Cs       7.18702119       2.61711301       5.35398343       0.00001000       0.00000569      -0.00000057
Cs      33.91733706      19.88084057       7.67856905      -0.00000299      -0.00000571      -0.00001197
Cs       9.99632986      18.18988849       5.34550375       0.00001243      -0.00001603      -0.00000181
Pb      31.91872204      15.49664007       0.49499428       0.00000263       0.00000759      -0.00000631
Pb      11.93371794       1.80330414       2.94510698      -0.00000864       0.00000568       0.00001142
Pb       3.06204981      20.73908171       0.57092115       0.00000422       0.00000159      -0.00000721
Pb       5.23419522      17.39246178       2.96177766       0.00000137       0.00000693       0.00000430
Pb      31.93141740      15.49702984       5.28771208      -0.00001193      -0.00001555       0.00000180
Pb      11.94637606       1.80363070       7.73784239      -0.00000338       0.00000008       0.00000087
Pb       3.07470308      20.73939020       5.36364229       0.00001008      -0.00000578      -0.00000367
Pb       5.24686592      17.39283075       7.75451146       0.00001093      -0.00000785      -0.00001015
I       30.80058928      17.35304007       2.89417351      -0.00000129      -0.00001372       0.00000190
I       30.84792179      -0.08377991       0.49885901      -0.00000373      -0.00000940       0.00000309
I        4.16338335       1.82147457       2.96566345      -0.00000219      -0.00000281      -0.00000000
I        4.09695064      15.54001160       0.56852290       0.00000477      -0.00000150       0.00001303
I       11.01774320      14.21503324       0.55032018       0.00000607       0.00000586       0.00000136
I       32.83469556       3.08493864       2.88979648       0.00000531      -0.00000013       0.00000133
I        6.16244087      19.41595872       0.56283698      -0.00000944       0.00000194      -0.00001619
I        2.13381238      18.71558610       2.96987265      -0.00000460       0.00000393       0.00000655
I       34.65971663      16.94352581       0.48763375       0.00000887       0.00000270       0.00000899
I        9.19271792       0.35642569       2.95243345      -0.00000314       0.00000127       0.00001044
I        0.29016960       1.42536433       0.57952557       0.00000848       0.00000515       0.00000354
I        7.97018504      15.93612864       2.95463954      -0.00000521       0.00000020      -0.00000346
I       30.81323352      17.35334182       7.68694567       0.00001373       0.00000739      -0.00000623
I       30.86058774      -0.08349584       5.29159110       0.00000829       0.00000399      -0.00000594
I        4.17607048       1.82180737       7.75835133      -0.00000342      -0.00000831       0.00001354
I        4.10962994      15.54035537       5.36128298       0.00000254       0.00000166      -0.00001170
I       11.03041955      14.21538258       5.34303392       0.00000758      -0.00000168      -0.00000026
I       32.84737632       3.08527159       7.68251067      -0.00000989      -0.00000436      -0.00000273
I        6.17510187      19.41628172       5.35551200      -0.00000487       0.00001205       0.00000483
I        2.14647761      18.71594098       7.76264277       0.00000758      -0.00000069      -0.00000397
I       34.67241644      16.94391133       5.28039060      -0.00000697      -0.00001170      -0.00000629
I        9.20537720       0.35674012       7.74519779       0.00000370       0.00000583      -0.00000965
I        0.30283696       1.42569017       5.37226512       0.00000890       0.00000026       0.00000271
I        7.98284401      15.93647260       7.74735665      -0.00000071      -0.00000270       0.00001236
Cs       1.11136067      14.74535345      12.55835497      -0.00001254      -0.00001111       0.00000601
Cs       7.19968881       2.61743662      10.14672318      -0.00000047       0.00000771      -0.00000093
Cs      33.93003172      19.88114326      12.47126700      -0.00001112      -0.00000289      -0.00000670
Cs      10.00902559      18.19019115      10.13824101      -0.00000983      -0.00000760      -0.00000330
Cs       1.12399148      14.74562456      17.35108674       0.00000482       0.00001547       0.00000240
Cs       7.21236840       2.61777412      14.93944291      -0.00001096       0.00000665       0.00000032
Cs      33.94266331      19.88143700      17.26398788      -0.00000449       0.00000872       0.00000856
Cs      10.02167282      18.19050172      14.93096720       0.00000284      -0.00000331      -0.00000169
Pb      31.94407490      15.49728738      10.08042732       0.00000266       0.00000348      -0.00000408
Pb      11.95906048       1.80394524      12.53056326      -0.00001326       0.00000049       0.00000555
Pb       3.08741685      20.73976595      10.15637451      -0.00001850      -0.00002165      -0.00000949
Pb       5.25953520      17.39311980      12.54722406       0.00000783       0.00000080      -0.00000181
Pb      31.95673769      15.49764989      14.87314948       0.00000016      -0.00000602       0.00000137
Pb      11.97169018       1.80431044      17.32327931       0.00000312      -0.00001607       0.00000725
Pb       3.10006700      20.74000500      14.94909607      -0.00000960       0.00002546       0.00000169
Pb       5.27219237      17.39345670      17.33996990       0.00000866      -0.00000663      -0.00000530
I       30.82592697      17.35366507      12.47961303       0.00000055       0.00000256       0.00002372
I       30.87326853      -0.08315330      10.08432865      -0.00000829      -0.00001001      -0.00000469
I        4.18873270       1.82213477      12.55114529      -0.00000397      -0.00001422      -0.00000292
I        4.12231831      15.54066519      10.15396351      -0.00000709       0.00000512       0.00000191
I       11.04307946      14.21570086      10.13576561       0.00000155      -0.00000921      -0.00000653
I       32.86002256       3.08559514      12.47526081       0.00000670      -0.00000412      -0.00000474
I        6.18778680      19.41661958      10.14827584      -0.00000209      -0.00000409       0.00000135
I        2.15915047      18.71624571      12.55529577       0.00000391       0.00000432       0.00001072
I       34.68506352      16.94418510      10.07306086       0.00000274       0.00000901       0.00002495
I        9.21805822       0.35706371      12.53792193       0.00000878       0.00000220      -0.00000709
I        0.31553541       1.42604339      10.16499540      -0.00000820      -0.00000262       0.00000226
I        7.99550608      15.93675861      12.54007064       0.00001078       0.00001149       0.00001562
I       30.83856953      17.35397617      17.27238617       0.00001341       0.00000405      -0.00000692
I       30.88592785      -0.08285419      14.87703810      -0.00000765       0.00000852       0.00000484
I        4.20139796       1.82243205      17.34381984      -0.00000101      -0.00000394       0.00000158
I        4.13495889      15.54100646      14.94671178      -0.00000221      -0.00000204      -0.00000429
I       11.05575255      14.21601902      14.92849429      -0.00000224      -0.00000260      -0.00000581
I       32.87269590       3.08591835      17.26791950      -0.00000260      -0.00000468       0.00001008
I        6.20045690      19.41691110      14.94098565      -0.00000232       0.00001213      -0.00000559
I        2.17180031      18.71656004      17.34808105       0.00000311      -0.00001984      -0.00001262
I       34.69774495      16.94451655      14.86579955      -0.00000175       0.00000352       0.00001187
I        9.23070315       0.35739743      17.33064268       0.00000769       0.00000402      -0.00000191
I        0.32819993       1.42630873      14.95774365      -0.00000694       0.00000728      -0.00001926
I        8.00816599      15.93709349      17.33281642       0.00000641       0.00000282       0.00000741
Cs      18.86410379       4.32891417       2.92663822      -0.00000893       0.00000031      -0.00000433
Cs      24.98833590      12.97107226       0.51346066      -0.00000508       0.00000074       0.00000972
Cs      16.09067871       9.52624359       2.93358158      -0.00000204      -0.00001162       0.00001109
Cs      27.76177321       7.77375038       0.50649792      -0.00000172      -0.00000296       0.00000986
Cs      18.87673977       4.32922095       7.71932911       0.00002056       0.00000257       0.00000390
Cs      25.00102113      12.97145469       5.30617103      -0.00000628      -0.00003025       0.00001323
Cs      16.10333098       9.52654368       7.72633851       0.00000842      -0.00001115      -0.00000004
Cs      27.77443179       7.77409544       5.29922772       0.00000987      -0.00001738      -0.00000076
Pb      14.10472199       5.14240346       0.54278438       0.00000407       0.00000046      -0.00001171
Pb      29.74768807      12.15758953       2.89733398       0.00000396      -0.00000655       0.00000195
Pb      20.84016485      10.32328703       0.52459373      -0.00000679      -0.00001123       0.00001795
Pb      23.01232417       6.97667571       2.91548131      -0.00001379       0.00000945       0.00000777
Pb      14.11739552       5.14274694       5.33549523       0.00000305      -0.00000266       0.00000904
Pb      29.76034739      12.15791739       7.69005352       0.00000546       0.00000104       0.00000421
Pb      20.85281654      10.32356838       5.31733466       0.00000341       0.00001155       0.00000645
Pb      23.02498043       6.97701569       7.70821143      -0.00000635      -0.00000147       0.00000254
I       12.98656079       6.99876982       2.94198326       0.00001009      -0.00000202      -0.00000122
I       13.06979229      10.33198866       0.54515568       0.00001159       0.00000178       0.00000210
I       21.97738199      12.17572293       2.91787557       0.00000323       0.00000606       0.00000009
I       21.87507149       5.12420656       0.52224648       0.00000221       0.00001914      -0.00000761
I       28.79584412       3.79923864       0.50402722      -0.00000403      -0.00000174       0.00000096
I       15.05660721      13.50070755       2.93607294       0.00000314      -0.00000058      -0.00000566
I       23.94055279       9.00016492       0.51651990      -0.00000523       0.00000061      -0.00000660
I       19.91192946       8.29979185       2.92355269      -0.00000964      -0.00000019       0.00000865
I       16.84572161       6.58927977       0.53543524       0.00000067       0.00000629      -0.00000372
I       27.00669620      10.71069558       2.90466564       0.00000141       0.00000935       0.00000629
I       18.10417804      11.77962246       0.53171975       0.00000082       0.00000933       0.00000528
I       25.74830127       5.52031916       2.90836751      -0.00000802       0.00000461      -0.00001296
I       12.99924104       6.99907513       7.73473232       0.00000367       0.00000321      -0.00000688
I       13.08250420      10.33232328       5.33789032      -0.00002063      -0.00000969      -0.00000681
I       21.99006195      12.17606979       7.71055353       0.00000733      -0.00001190       0.00000685
I       21.88773219       5.12457654       5.31496988      -0.00000056      -0.00000714      -0.00000133
I       28.80853442       3.79956741       5.29677071      -0.00001573       0.00000955      -0.00000405
I       15.06929538      13.50105105       7.72879491      -0.00001192       0.00000575      -0.00000314
I       23.95322021       9.00049058       5.30923289      -0.00000929       0.00000188      -0.00000106
I       19.92458718       8.30011938       7.71634232      -0.00000230       0.00000138      -0.00001603
I       16.85839758       6.58963502       5.32813836      -0.00000572      -0.00001253       0.00000727
I       27.01933896      10.71104793       7.69737896       0.00001865      -0.00000894       0.00000397
I       18.11683923      11.77992727       5.32450137       0.00001072       0.00000982      -0.00001899
I       25.76094972       5.52064257       7.70108078       0.00000133       0.00000608      -0.00000606
Cs      18.88945063       4.32954854      12.51206976      -0.00001235      -0.00000252      -0.00000015
Cs      25.01367238      12.97171198      10.09894027       0.00000008       0.00000906      -0.00000097
Cs      16.11601562       9.52688289      12.51902897      -0.00000136      -0.00001233       0.00000475
Cs      27.78707745       7.77440678      10.09192349       0.00001664       0.00000232       0.00001991
Cs      18.90207804       4.32986857      17.30480056       0.00000369       0.00000795       0.00000040
Cs      25.02634688      12.97203081      14.89165991       0.00000891       0.00001155      -0.00000619
Cs      16.12865690       9.52718358      17.31175588       0.00000940      -0.00000072       0.00001765
Cs      27.79976481       7.77472810      14.88467677       0.00000350      -0.00001585      -0.00000608
Pb      14.13007487       5.14302950      10.12823095       0.00000173       0.00000537      -0.00000075
Pb      29.77305284      12.15823670      12.48279351      -0.00001571      -0.00000037      -0.00001224
Pb      20.86551349      10.32395451      10.11004700      -0.00001927      -0.00001173       0.00001124
Pb      23.03763233       6.97731626      12.50093295       0.00000565      -0.00000338      -0.00000654
Pb      14.14273164       5.14340935      14.92093602       0.00000629      -0.00001989       0.00001159
Pb      29.78569525      12.15856037      17.27549525      -0.00000079       0.00000335       0.00000581
Pb      20.87814442      10.32419696      14.90277537       0.00000419       0.00001603       0.00000822
Pb      23.05029860       6.97764785      17.29367301      -0.00000111      -0.00000248      -0.00000114
I       13.01191618       6.99942648      12.52740509       0.00000454      -0.00001611       0.00000575
I       13.09514692      10.33265642      10.13060143      -0.00000142      -0.00000546      -0.00001266
I       22.00272603      12.17637101      12.50335066      -0.00000249       0.00000585      -0.00001728
I       21.90041211       5.12486090      10.10766953      -0.00000487       0.00000645       0.00000456
I       28.82117648       3.79986851      10.08948213      -0.00000986       0.00001436      -0.00000299
I       15.08194609      13.50137935      12.52150867      -0.00000123      -0.00000482      -0.00000612
I       23.96588119       9.00081232      10.10198147       0.00000398       0.00000211      -0.00000493
I       19.93725292       8.30043907      12.50897815      -0.00000973       0.00000231       0.00001581
I       16.87107356       6.58990927      10.12086842      -0.00000396       0.00001269       0.00000770
I       27.03205943      10.71134837      12.49012912      -0.00001431      -0.00001018       0.00000129
I       18.12951527      11.78027441      10.11718487       0.00000975       0.00001562       0.00000588
I       25.77361779       5.52097122      12.49380136      -0.00000671       0.00000639      -0.00001049
I       13.02456480       6.99973608      17.32016969       0.00000363      -0.00001124      -0.00000967
I       13.10781737      10.33296009      14.92331720      -0.00000404      -0.00000292       0.00000151
I       22.01539087      12.17669058      17.29599948      -0.00000756      -0.00000234       0.00000685
I       21.91303908       5.12521300      14.90042213       0.00001701       0.00000042      -0.00001707
I       28.83384040       3.80022406      14.88218913       0.00001182      -0.00000205       0.00001255
I       15.09461481      13.50168049      17.31423319      -0.00000951       0.00000314      -0.00000368
I       23.97854785       9.00111233      14.89469083      -0.00000487       0.00000906      -0.00000289
I       19.94989898       8.30075305      17.30177730       0.00000606      -0.00000635      -0.00000070
I       16.88374684       6.59026278      14.91357982      -0.00000665       0.00000344       0.00000388
I       27.04471100      10.71165134      17.28284590      -0.00000723       0.00001016       0.00000116
I       18.14218206      11.78057866      14.90991444      -0.00000227       0.00000423       0.00000056
I       25.78627585       5.52129419      17.28654600      -0.00000115       0.00000228      -0.00001151
Cs      18.88205304      14.71388286       2.92587660       0.00000233       0.00001311      -0.00000341
Cs      24.97039350       2.58601866       0.51423910       0.00000725       0.00000914      -0.00000772
Cs      16.10861384      19.91124471       2.93284616       0.00000127      -0.00000056      -0.00000008
Cs      27.77971496      18.15881059       0.50573771       0.00000593       0.00000147       0.00000948
Cs      18.89473764      14.71424608       7.71860283      -0.00001595       0.00000588      -0.00000239
Cs      24.98306568       2.58636375       5.30695929       0.00000667      -0.00000276       0.00000804
Cs      16.12130188      19.91155680       7.72556597      -0.00000934       0.00000865       0.00001237
Cs      27.79240072      18.15906387       5.29847087      -0.00001636       0.00002588       0.00000787
Pb      14.12270451      15.52740411       0.54202177      -0.00000326       0.00000166      -0.00000395
Pb      29.72975644       1.77255251       2.89808756       0.00000450      -0.00000444      -0.00000502
Pb      20.85810062      20.70837408       0.52387965      -0.00000512      -0.00002894       0.00000749
Pb      23.03023542      17.36172304       2.91472106       0.00000049       0.00000890       0.00000691
Pb      14.13538240      15.52774092       5.33473847      -0.00000845       0.00000656       0.00000269
Pb      29.74243837       1.77285731       7.69079880      -0.00000634       0.00000574       0.00000733
Pb      20.87074474      20.70860227       5.31659470       0.00001144       0.00000953       0.00000774
Pb      23.04290529      17.36204004       7.70747578       0.00000650       0.00000726      -0.00000443
I       13.00456244      17.38377735       2.94122677      -0.00001942       0.00000060      -0.00000369
I       13.05187560      -0.05302402       0.54587926      -0.00000402      -0.00000626       0.00000843
I       21.95942866       1.79073000       2.91866683       0.00000177      -0.00001294      -0.00002112
I       21.89300797      15.50925218       0.52148093       0.00001067       0.00000549      -0.00000068
I       28.81376636      14.18427790       0.50328864       0.00001456       0.00000608      -0.00000280
I       15.03864405       3.11571812       2.93683606       0.00000944      -0.00000911      -0.00000611
I       23.95848230      19.38522484       0.51577904      -0.00001043      -0.00000272      -0.00000886
I       19.92985135      18.68484413       2.92279931       0.00000336      -0.00001318       0.00000587
I       16.86369960      16.97428316       0.53468115      -0.00000346       0.00000890      -0.00000016
I       26.98876258       0.32565865       2.90545245       0.00000161      -0.00000388      -0.00001233
I       18.08620678       1.39462925       0.53251370       0.00000741       0.00000078      -0.00000555
I       25.76622719      15.90538837       2.90757036      -0.00001184      -0.00000445       0.00000047
I       13.01721065      17.38410600       7.73393476       0.00000264      -0.00001145       0.00001613
I       13.06452910      -0.05272980       5.33863349       0.00000274       0.00001549      -0.00001036
I       21.97208634       1.79103808       7.71130917      -0.00000778      -0.00001245       0.00001280
I       21.90567453      15.50960189       5.31420759      -0.00000579      -0.00000422      -0.00000516
I       28.82647598      14.18462462       5.29600492      -0.00001351       0.00000496      -0.00000532
I       15.05130277       3.11603298       7.72953008       0.00001393      -0.00001443      -0.00000530
I       23.97114396      19.38550856       5.30849896       0.00000368       0.00000484      -0.00000206
I       19.94251895      18.68514580       7.71559956      -0.00000794       0.00000404      -0.00001268
I       16.87638033      16.97462483       5.32738172       0.00000044      -0.00000261       0.00001073
I       27.00144226       0.32596947       7.69813608      -0.00000759       0.00000499       0.00000377
I       18.09888005       1.39491042       5.32520898       0.00000200       0.00000968       0.00000408
I       25.77888458      15.90568809       7.70035281       0.00000546       0.00000471      -0.00000779