40
Lattice="18.08213420263261 -0.02186722016838364 -0.3179458076911285 0.032045945389111596 10.58581331742226 0.027614093603536803 0.16485468505777356 -0.02173742671463627 9.696785919553509" Properties=species:S:1:pos:R:3:forces:R:3 energy=-124.32141717844482 stress="0.003246925900364369 5.457323480327711e-05 -2.1282126562414622e-05 5.457323480327711e-05 0.003270673922400774 2.3589986698873042e-05 -2.1282126562414622e-05 2.3589986698873042e-05 0.0032766683574545694" free_energy=-124.32141717844482 pbc="T T T"
Cs      -0.89315841      15.78872267       2.19891501       0.00001112      -0.00000266      -0.00000753
Cs       5.33165570      24.65460513      -0.31275186      -0.00001131      -0.00000793      -0.00000920
Cs      -3.67805915      21.08503671       2.26150230      -0.00000848      -0.00000327      -0.00000497
Cs       8.11654381      19.35827693      -0.37538385       0.00000041       0.00000130       0.00000860
Cs      -0.81072307      15.77783674       7.04727992       0.00000721       0.00001227       0.00000595
Cs       5.41407603      24.64369090       4.53562803      -0.00000431       0.00001580       0.00000221
Cs      -3.59561872      21.07413296       7.10990690      -0.00000639       0.00001935      -0.00000467
Cs       8.19898131      19.34741774       4.47301152      -0.00000093      -0.00000702       0.00000316
Pb      -5.76015642      16.64983334      -0.13833835      -0.00000927       0.00001704       0.00000624
Pb      10.19867173      23.79344619       2.02444125      -0.00002388      -0.00000961       0.00000269
Pb       1.10902404      21.93527947      -0.24542955       0.00002288      -0.00003619      -0.00000486
Pb       3.32944246      18.50806237       2.13157667       0.00000310       0.00002294      -0.00000780
Pb      -5.67774941      16.63902801       4.71006187      -0.00001224       0.00000673      -0.00000761
Pb      10.28109787      23.78260215       6.87281638      -0.00005305      -0.00005205       0.00001023
Pb       1.19146722      21.92441664       4.60296843       0.00003037      -0.00003138       0.00000787
Pb       3.41189519      18.49716624       6.97996630      -0.00000277       0.00004083       0.00000510
I       -6.83020452      18.51036457       2.30936701       0.00000455      -0.00000937       0.00002203
I       -6.81341386      21.95484363      -0.10537090      -0.00000676       0.00000796       0.00000627
I        2.27240548      23.79017768       2.16380226       0.00001369       0.00001455      -0.00000271
I        2.16605552      16.65316926      -0.27766606      -0.00000097      -0.00002101       0.00000840
I        9.22318629      15.25445456      -0.40729903       0.00000410       0.00001323       0.00000416
I       -4.78469220      25.18885858       2.29344510       0.00000502      -0.00001052      -0.00000434
I        4.20245880      20.55005736      -0.30339494       0.00000657       0.00000084      -0.00000520
I        0.23600365      19.89329481       2.18956017       0.00000833      -0.00002636      -0.00001103
I       -2.99350013      18.08170528      -0.18328895       0.00000399       0.00001509       0.00000339
I        7.43200885      22.36156880       2.06941027       0.00001574       0.00000737      -0.00000365
I       -1.65145340      23.37631307      -0.19273749      -0.00002038       0.00001545      -0.00000979
I        6.08990627      17.06700640       2.07888729       0.00002740       0.00000205      -0.00000453
I       -6.74777706      18.49950592       7.15784755       0.00000582      -0.00002478      -0.00002692
I       -6.73101669      21.94392990       4.74303100       0.00000700       0.00001735       0.00001057
I        2.35484980      23.77931621       7.01222959      -0.00000344       0.00000136      -0.00001951
I        2.24852783      16.64227912       4.57071770      -0.00003546      -0.00002777       0.00001183
I        9.30560613      15.24360834       4.44108440       0.00001674      -0.00000613      -0.00000010
I       -4.70226577      25.17797888       7.14175242       0.00000751       0.00000264       0.00000951
I        4.28489525      20.53918821       4.54500420       0.00001253      -0.00000358      -0.00000145
I        0.31846722      19.88239400       7.03791634      -0.00001398       0.00000832       0.00000830
I       -2.91108303      18.07088458       4.66510170      -0.00000510      -0.00001161       0.00000477
I        7.51443065      22.35070374       6.91781622       0.00004194       0.00002399      -0.00000526
I       -1.56900833      23.36542782       4.65565586      -0.00004355       0.00002621       0.00000160
I        6.17237030      17.05612206       6.92726728       0.00000624      -0.00000141      -0.00000177
