96
Lattice="15.8096963444565 0.3664931086716133 0.02220464300948878 -0.21873753263028825 15.033682377862837 0.3417252235684761 -0.08282397777202963 -0.1723327565804005 8.665506017993664" Properties=species:S:1:pos:R:3:forces:R:3 energy=-419.00932526166724 stress="0.0020444253670501146 0.00022075567007057032 0.0002229807113677394 0.00022075567007057032 0.003326330395619258 3.92082317111135e-05 0.0002229807113677394 3.92082317111135e-05 0.002959111318875995" free_energy=-419.00932526166724 pbc="T T T"
I        3.69615824       3.50882496      -0.48159011       0.00000829      -0.00000683       0.00000597
I        1.21332397       8.01362130       0.51502894      -0.00000280      -0.00000405       0.00000110
I        3.60049047       3.26726928       3.82057426       0.00000579       0.00000636      -0.00001524
I        1.22610309       8.08285575       4.87840438      -0.00002438      -0.00000586       0.00000901
I        5.23795831       6.96862168       2.69216216       0.00000214      -0.00000356       0.00000923
I       -0.41134352       4.38146944       6.00687351      -0.00001608       0.00000685      -0.00000271
H       -0.91098948       4.51988279       1.30369537      -0.00001247      -0.00001563       0.00000894
H        5.82071380       7.00274497      -1.27062569      -0.00001162      -0.00000398      -0.00000630
H        0.69789060       3.99321783       0.70294114      -0.00000993       0.00000945      -0.00002560
H        4.98285829       8.39450257      -2.04036715       0.00001318      -0.00000484      -0.00002805
H       -0.07383152       3.12811536       2.07418501       0.00001502       0.00000297      -0.00001475
H        4.21190433       7.52873583      -0.66910505      -0.00000243       0.00001234      -0.00000438
H        1.64146323       4.64942020       2.85545323       0.00000863      -0.00000247      -0.00000613
H        4.74941031       6.35405948      -3.36712570       0.00001135       0.00000268       0.00000075
H        0.15986281       5.16868564       3.40050295       0.00000348      -0.00000152       0.00000666
H        3.26785897       6.87305294      -2.82171085       0.00001159       0.00001691       0.00000339
H        0.89032531       5.96489820       2.10521596       0.00000038      -0.00000569       0.00001231
H        4.01926660       5.55753359      -2.07183504      -0.00000483      -0.00000429       0.00000002
C        0.05933727       4.09898536       1.58507674       0.00000125      -0.00002480       0.00000990
C        4.85015569       7.42344034      -1.55151557      -0.00001376      -0.00001611       0.00000881
Pb       1.48989231      16.93145768       6.36743679       0.00001168      -0.00000833       0.00000674
Pb      -2.46112283      16.76845869       6.36386194      -0.00000766       0.00000953       0.00000392
N        0.72466299       5.03233467       2.54202904       0.00000663       0.00001493       0.00000331
N        4.18475595       6.49018839      -2.50851415       0.00001490       0.00001004      -0.00000025
I        5.12812520      10.78989358       4.94622499       0.00000457      -0.00000676       0.00000074
I       -0.52027849      15.59390099       4.09448859       0.00000650      -0.00001321       0.00001075
I        5.09850770      11.05768518       0.58681057      -0.00000820       0.00000705      -0.00000533
I       -0.40774567      15.49837241      -0.21161745      -0.00000932       0.00000339      -0.00000222
I        3.51673298      14.54597556      -2.42052026       0.00001101       0.00001037      -0.00000541
I        1.17398625      12.01016121       2.79574609       0.00000368      -0.00000335      -0.00000387
H        0.14197901      11.36692834       8.08697321      -0.00000183      -0.00000276       0.00000349
H        3.70311312      15.81666237       2.36936095       0.00000996      -0.00000598      -0.00000234
H        0.90467649      10.56698094       6.67154392      -0.00000791       0.00000990      -0.00000580
H        4.46619554      15.01707425       0.95393990      -0.00000907      -0.00000716       0.00000126
H        1.71648950      11.96292858       7.46173472       0.00002560       0.00001991       0.00000844
H        2.89162055      14.42077111       1.57873611       0.00000262       0.00000277       0.00001038
H       -0.87649938      12.05304991       5.97642881      -0.00000601       0.00000724      -0.00001080
H        4.03600854      13.74670100       3.62885696       0.00000836       0.00002432      -0.00000298
H        0.57181227      12.63681169       5.41176528      -0.00000293       0.00001819      -0.00001307
H        5.48436533      14.33063238       3.06447204       0.00000905      -0.00002059      -0.00001002
H       -0.15115105      13.36947622       6.75033211      -0.00001337       0.00000085      -0.00000280
H        4.75918638      13.01426507       2.29029345      -0.00000284       0.00001246       0.00001413
C        0.75317657      11.51851846       7.19226375      -0.00002997      -0.00002594       0.00000594
C        3.85482736      14.86524024       1.84849216      -0.00001840       0.00000522      -0.00000211
Pb       3.11798448       9.45232390       2.67326031       0.00001382       0.00000463       0.00001470
Pb       7.06902135       9.61530152       2.67688851       0.00001290      -0.00001955       0.00001632
N        0.03384104      12.45697719       6.28024850       0.00000429      -0.00001376      -0.00000353
N        4.57408603      13.92669284       2.76047674      -0.00001129      -0.00000268       0.00000155
I       11.60098192       3.69206696      -0.47044927       0.00000018      -0.00000285      -0.00002683
I        9.11811374       8.19686409       0.52613615      -0.00000897      -0.00000082       0.00000271
I       11.50538410       3.45050513       3.83168988       0.00000385       0.00001361      -0.00001237
I        9.13099082       8.26607949       4.88950985      -0.00001586       0.00000013      -0.00000700
I       13.14284812       7.15185290       2.70320773      -0.00000437       0.00001103       0.00000767
I        7.49352449       4.56472544       6.01789331      -0.00000910       0.00000017       0.00000170
H        8.60246585       4.17664319       0.71382335      -0.00000027       0.00000246       0.00001587
H       12.11648835       7.71221802      -0.65821522       0.00000870      -0.00000690      -0.00000672
H        7.83130356       3.31119524       2.08516848      -0.00000410      -0.00000562      -0.00000548
H       13.72536259       7.18583017      -1.25922268       0.00001597       0.00000601       0.00000131
H        6.99365387       4.70290011       1.31510915      -0.00000907       0.00000894       0.00000435
H       12.88796526       8.57761554      -2.02941388      -0.00001046       0.00002333      -0.00000885
H        9.54642845       4.83264808       2.86631834       0.00000327      -0.00000812      -0.00000040
H       11.92404220       5.74075983      -2.06073587      -0.00000093       0.00000198       0.00000185
H        8.06487790       5.35175539       3.41163347      -0.00001101      -0.00001283       0.00001620
H       12.65441004       6.53714515      -3.35597628       0.00000185      -0.00001425      -0.00001029
H        8.79507402       6.14810943       2.11627382       0.00002261      -0.00001034       0.00001273
H       11.17280823       7.05627204      -2.81080764      -0.00001701       0.00000538      -0.00000528
C        7.96414512       4.28215868       1.59615796       0.00000507      -0.00000584      -0.00002111
C       12.75495731       7.60665840      -1.54043733       0.00001067      -0.00000938       0.00000653
Pb       9.39475823      17.11472081       6.37854529       0.00000606      -0.00002204       0.00000001
Pb       5.44371117      16.95173550       6.37493250       0.00000323      -0.00001337      -0.00001607
N        8.62955157       5.21550665       2.55305621      -0.00001000       0.00003420       0.00000058
N       12.08964099       6.67337434      -2.49746031       0.00000074      -0.00000533       0.00002239
I       13.03296863      10.97307925       4.95731421       0.00002565       0.00001628      -0.00001080
I        7.38460279      15.77710373       4.10560760      -0.00000016       0.00000290       0.00000690
I       13.00333418      11.24094247       0.59788969       0.00000190       0.00000274       0.00001019
I        7.49707092      15.68168805      -0.20050155       0.00000752       0.00000206       0.00000146
I       11.42158161      14.72920512      -2.40944834      -0.00000977       0.00000583       0.00001045
I        9.07884343      12.19336839       2.80685690       0.00000610       0.00001202      -0.00000682
H        8.80962669      10.75035691       6.68251848      -0.00001104       0.00001921       0.00000746
H       11.60806969      15.99999131       2.38039511      -0.00000203       0.00001726       0.00001354
H        9.62121867      12.14628177       7.47298334       0.00000396      -0.00000073      -0.00001881
H       12.37086891      15.20019794       0.96493718       0.00000990      -0.00000122      -0.00000980
H        8.04669280      11.55004799       8.09796390       0.00000257       0.00000262      -0.00000796
H       10.79631693      14.60412237       1.59000222       0.00002026      -0.00001000       0.00001697
H        8.47666682      12.82025867       5.42293497       0.00000007      -0.00000254       0.00000755
H       13.38921615      14.51386769       3.07546051      -0.00000783      -0.00000910      -0.00001047
H        7.75359778      13.55277481       6.76151806       0.00001091      -0.00001038      -0.00000522
H       12.66390928      13.19750379       2.30140569      -0.00000251       0.00000915       0.00000480
H        7.02834721      12.23638017       5.98746429       0.00000802      -0.00000082      -0.00000238
H       11.94087412      13.93005384       3.63999472       0.00002102      -0.00000184      -0.00002823
C        8.65797872      11.70181376       7.20334389      -0.00002010      -0.00001939       0.00000724
C       11.75961028      15.04850885       1.85958802      -0.00002248      -0.00001981      -0.00003467
Pb      11.02284105       9.63554394       2.68434400      -0.00000753      -0.00000103       0.00000781
Pb      14.97386998       9.79855182       2.68795008      -0.00001667       0.00000217       0.00001139
N        7.93865482      12.64032092       6.29136860      -0.00000331      -0.00000966      -0.00001022
N       12.47889171      14.10996396       2.77155674       0.00000492       0.00001606       0.00006207
