40
Lattice="12.303700974353289 0.6075751170412748 0.34621762595981453 0.10501847024395478 12.322860009002714 -0.07580521234016391 -0.3554848638552304 0.07986566140260491 12.492411227656127" Properties=species:S:1:pos:R:3:forces:R:3 energy=-123.36271035978619 stress="1.564529515924147e-07 -8.872371563930073e-08 -1.7073290645095935e-08 -8.872371563930073e-08 -1.5552593630789046e-07 -5.0118094093317636e-08 -1.7073290645095935e-08 -5.0118094093317636e-08 -1.4077091087526307e-08" free_energy=-123.36271035978619 pbc="T T T"
Cs      12.39871225      11.61728451       6.33413512       0.00003938       0.00002505      -0.00001511
Cs       6.19437672       5.15214955       6.19890847       0.00002239      -0.00000506       0.00000468
Cs       5.36473484       3.77310882      12.43564416      -0.00003865       0.00002289      -0.00000882
Cs      11.56906286      10.23835891      12.57083142       0.00000887      -0.00001169       0.00000622
Cs      11.14717614       4.43168651      12.59595907       0.00001040      -0.00001627       0.00001395
Cs       5.04788138      10.28924990      12.38494496      -0.00000865      -0.00000773      -0.00000625
Cs       6.61619709      10.95884612       6.17380167      -0.00000779       0.00000081      -0.00001456
Cs      12.71555940       5.10121396       6.38481967       0.00002211      -0.00000060      -0.00002567
Pb       2.67731111       1.23002630       9.24967355       0.00004972       0.00000362       0.00000750
Pb       8.88173024       7.69523274       9.38486100      -0.00002359       0.00002036       0.00002290
Pb       2.72987600       7.39144173       9.21176775      -0.00000198      -0.00000954      -0.00003349
Pb       8.82919456       1.53380500       9.42279085      -0.00001876       0.00000267      -0.00000377
Pb       2.85509371       1.19005908       3.00345935      -0.00000471       0.00002847      -0.00003767
Pb       9.05947371       7.65531112       3.13866350       0.00001495      -0.00000621       0.00000529
Pb       2.90764125       7.35148384       2.96556020      -0.00001957       0.00002115      -0.00001796
Pb       9.00695219       1.49387288       3.17657947       0.00001637       0.00001316      -0.00000314
I        3.47329532       4.30513229       8.76091059      -0.00000574       0.00001877       0.00000500
I        9.67763863      10.77036749       8.89614603      -0.00000850      -0.00001701       0.00001337
I       14.29014573      11.08533544      10.00881830      -0.00000177      -0.00000933      -0.00000003
I        8.08577835       4.62012739       9.87359233       0.00000035      -0.00001031       0.00000173
I       11.97693578       7.09502483       9.96849878       0.00000658       0.00000857      -0.00001185
I        5.87757080      12.95268650       9.75751853       0.00002344      -0.00000605      -0.00000066
I        5.78649684       8.29545414       8.80124282       0.00001872      -0.00000213       0.00001036
I       11.88582494       2.43781482       9.01222874      -0.00003254      -0.00000636       0.00000213
I       14.49585261      11.03910798       2.77998706       0.00001220      -0.00000690       0.00000556
I        8.29147805       4.57390564       2.64482567       0.00001941       0.00001170       0.00000269
I        3.26762425       4.35134350      15.98975810      -0.00002339      -0.00001395      -0.00001255
I        9.47195188      10.81658341      16.12495336      -0.00000858      -0.00002895      -0.00000913
I        5.58082097       8.34168550      16.03003367      -0.00001258      -0.00000079       0.00000412
I       11.68015788       2.48402383      16.24110741      -0.00007714      -0.00001110      -0.00001747
I       12.18266150       7.04881469       2.73969730      -0.00001278       0.00000586       0.00001865
I        6.08329636      12.90643785       2.52865063       0.00004819       0.00001097       0.00001380
I        2.20194777      14.05057365      12.27990201       0.00000879      -0.00001322       0.00007006
I        8.30134076       8.19283938      12.49093333       0.00000139       0.00000199       0.00002154
I       15.56142354       1.33998212       6.48981673       0.00000378      -0.00002271      -0.00001173
I        9.46214206       7.19765502       6.27882445      -0.00001951      -0.00001238      -0.00005831
I        2.32165158       7.84328560       6.07148737      -0.00000505       0.00001054      -0.00000660
I        8.52593530      14.30848629       6.20671082       0.00000353       0.00002414       0.00000349
I       15.44178560       7.54715795      12.69822005       0.00003674      -0.00001605       0.00006396
I        9.23754534       1.08198391      12.56305160      -0.00003603       0.00000362      -0.00000224
