320
Lattice="32.02514155635805 0.021455238516920275 -0.37634437063629317 -0.018323454522768932 27.818504891551648 0.027371348500123068 0.19813321970508205 -0.016466534599296784 16.862197425937286" Properties=species:S:1:pos:R:3:forces:R:3 energy=-988.0520458110313 stress="-4.872995327434721e-09 7.737737630942992e-09 6.1697232502758005e-09 7.737737630942992e-09 1.9042713190792456e-08 2.8436968915400353e-08 6.1697232502758005e-09 2.8436968915400353e-08 -1.4460908430930002e-08" free_energy=-988.0520458110313 pbc="T T T"
Cs      30.43836118       4.90974666       4.00948337      -0.00000149      -0.00000931       0.00000068
Cs       2.60652631       7.47842523       8.55528081       0.00000026       0.00000551      -0.00000816
Cs      30.52658214      11.86857501      -0.20086809      -0.00000191      -0.00001141       0.00000162
Cs       2.41004376      14.43707902       4.34820767      -0.00000025       0.00000009       0.00000281
Cs       6.41944212       4.89359934       4.29177644       0.00000748      -0.00000607      -0.00000361
Cs      10.61282490       7.48376606       8.46116830       0.00000173       0.00000580       0.00000201
Cs       6.50772418      11.85246023       0.08143685       0.00001834      -0.00000099      -0.00000529
Cs      10.41631786      14.44241656       4.25413079       0.00000497       0.00000663      -0.00000098
Pb      31.82549777      16.63994130       8.22081893       0.00000332       0.00001457      -0.00000783
Pb       3.80350008      16.60962684       8.55004757      -0.00000560       0.00000904       0.00000052
Pb       1.21020241       9.65747353       4.35768352      -0.00000993      -0.00000584      -0.00000912
Pb      29.23218332       9.68773515       4.02838003       0.00002492      -0.00001053      -0.00001786
Pb       7.80664079      16.62380705       8.50308286      -0.00001809      -0.00001714      -0.00000839
Pb      11.80978137      16.61507184       8.45600976       0.00001758      -0.00001862      -0.00000880
Pb       9.21649246       9.66277594       4.26353626      -0.00001189      -0.00000493      -0.00000106
Pb       5.21334704       9.67157982       4.31063022      -0.00001139       0.00000110      -0.00001817
I        1.65854105       4.02200520       2.30592703      -0.00000774       0.00000245      -0.00000749
I       31.28726780       8.37442145       1.82770548       0.00000737      -0.00000473       0.00001400
I        1.70644865       4.01804660       6.38721960      -0.00000107      -0.00000980      -0.00000276
I       31.33838380       8.37006957       6.17752393       0.00000478       0.00000329       0.00001545
I        3.31473319       7.14347859       4.33044060       0.00000243       0.00001596       0.00001003
I       29.73012725       5.24463168       8.23432964      -0.00000715       0.00001264      -0.00000900
I        3.31470717      10.97358316       6.50943372      -0.00000701      -0.00000231       0.00000341
I       29.72102540      15.32389125       6.06901653      -0.00000244      -0.00001687       0.00001686
I        3.26356190      10.97786196       2.15963514      -0.00000022      -0.00000184      -0.00000635
I       29.67304272      15.32769392       1.98774520       0.00001177       0.00001100      -0.00000209
I        1.70220672      14.09287984       8.57225651       0.00001808      -0.00001047       0.00001056
I       31.33344969      12.20451297       4.00625961      -0.00001530      -0.00000182      -0.00001813
I        9.66473569       4.02742809       2.21182872       0.00001852      -0.00000537       0.00001120
I        7.26840437       8.35816244       2.10998265      -0.00000139       0.00002096       0.00000501
I        9.71278097       4.02337357       6.29312251      -0.00000980       0.00001424      -0.00001233
I        7.31957309       8.35399087       6.45979540      -0.00000501       0.00000894      -0.00000016
I       11.32109647       7.14884224       4.23633972      -0.00001202      -0.00001449       0.00000961
I        5.71123856       5.22856441       8.51649821      -0.00000070      -0.00001024       0.00000222
I       11.32092157      10.97894225       6.41531632       0.00000571       0.00001321       0.00000342
I        5.70221680      15.30761742       6.35129679      -0.00000845       0.00000110      -0.00000401
I       11.26983920      10.98319761       2.06549540       0.00000114       0.00001195      -0.00000165
I        5.65419807      15.31168852       2.27002611       0.00000011       0.00000215       0.00000299
I        9.70857584      14.09824947       8.47828556      -0.00000137       0.00000700      -0.00000256
I        7.31459058      12.18835978       4.28830786      -0.00000103       0.00000117       0.00000613
Cs      30.53743686       4.90150405      12.44058028      -0.00000653      -0.00001163       0.00000634
Cs       2.70561100       7.47017169      16.98638623      -0.00000759       0.00000441      -0.00001181
Cs      30.62559860      11.86033565       8.23024910       0.00000802      -0.00000524      -0.00000713
Cs       2.50909603      14.42882589      12.77933762       0.00000380      -0.00000180      -0.00000317
Cs       6.51854540       4.88541321      12.72288092      -0.00001207      -0.00001342       0.00000097
Cs      10.51372968       7.49204275       0.03004471       0.00000571      -0.00000548      -0.00000652
Cs       6.60681690      11.84421550       8.51250366       0.00001355      -0.00000761       0.00000120
Cs      10.51538486      14.43421860      12.68525508      -0.00000359      -0.00000701      -0.00001394
Pb      31.92454744      16.63166729      16.65192059       0.00000314       0.00001094      -0.00000507
Pb       3.70443038      16.61791117       0.11898107       0.00002679      -0.00000136      -0.00000586
Pb       1.30926000       9.64925644      12.78874402       0.00000562       0.00000036       0.00001523
Pb      29.33124397       9.67947153      12.45946520       0.00003002      -0.00000332       0.00000224
Pb       7.70757635      16.63207416       0.07198836      -0.00003059       0.00000808       0.00000339
Pb      11.71073061      16.62330571       0.02492142       0.00000224      -0.00002688       0.00002114
Pb       9.31553766       9.65460368      12.69466802       0.00003033      -0.00000657       0.00001545
Pb       5.31239090       9.66340104      12.74171253      -0.00000776      -0.00000900       0.00001526
I        1.75759775       4.01377393      10.73702066      -0.00000387       0.00000356       0.00001311
I       31.38634670       8.36612941      10.25881509      -0.00000549      -0.00000351      -0.00000898
I        1.80556691       4.00976574      14.81831208      -0.00000280       0.00000456      -0.00000826
I       31.43747474       8.36189830      14.60863491       0.00000517       0.00000756      -0.00001459
I        3.41380000       7.13527746      12.76152809       0.00001286      -0.00000433       0.00000043
I       29.82919600       5.23644118      16.66531125       0.00000154       0.00000133       0.00002156
I        3.41374257      10.96534964      14.94054628      -0.00000748       0.00000762      -0.00002170
I       29.82010416      15.31555766      14.50011877      -0.00001928      -0.00000369       0.00000720
I        3.36262261      10.96968263      10.59071216      -0.00000795      -0.00000203      -0.00001138
I       29.77211724      15.31951903      10.41884475       0.00000843       0.00000669       0.00000212
I        1.60319881      14.10111453       0.14126648       0.00000200      -0.00001040      -0.00000130
I       31.43247937      12.19627743      12.43718540      -0.00000386      -0.00001151       0.00001104
I        9.76386296       4.01918044      10.64293659      -0.00000223      -0.00000070       0.00000981
I        7.36749204       8.34999346      10.54109566      -0.00001099       0.00000591      -0.00002015
I        9.81184850       4.01514383      14.72419985      -0.00000464       0.00000852       0.00000801
I        7.41858046       8.34581045      14.89090413       0.00000937      -0.00000696       0.00000244
I       11.42010157       7.14063617      12.66751721       0.00002190       0.00002494      -0.00000166
I        5.61216868       5.23673798       0.08537053       0.00000681      -0.00000573      -0.00000067
I       11.42001118      10.97078935      14.84641930      -0.00000087      -0.00000820      -0.00000964
I        5.80125614      15.29942628      14.78241239      -0.00000007       0.00000738       0.00000484
I       11.36889646      10.97496704      10.49660785       0.00000540      -0.00000029       0.00000641
I        5.75322812      15.30340956      10.70110373       0.00001890      -0.00000044       0.00001389
I        9.60949162      14.10651174       0.04724137      -0.00000126      -0.00001116      -0.00001742
I        7.41364310      12.18018122      12.71946147      -0.00000776      -0.00000197      -0.00000392
Cs      30.42917913      18.81898425       4.02314624      -0.00000324      -0.00000207       0.00001132
Cs       2.59735747      21.38764689       8.56890512       0.00001067       0.00000613       0.00000688
Cs      30.51735338      25.77783986      -0.18718300       0.00002107      -0.00000114       0.00000422
Cs       2.41924357       0.52781226       4.33445298      -0.00001297      -0.00000192       0.00001692
Cs       6.41028178      18.80285688       4.30547881      -0.00000494       0.00000062      -0.00000381
Cs      10.60364737      21.39302819       8.47486835       0.00000936       0.00001218      -0.00000272
Cs       6.49868810      25.76164061       0.09511132      -0.00002074       0.00001770      -0.00000592
Cs      10.42548779       0.53318796       4.24040265      -0.00000980       0.00000113       0.00000451
Pb      31.83466647       2.73065255       8.20709322      -0.00000744      -0.00000121      -0.00001413
Pb       3.81267459       2.70043507       8.53636161       0.00001382      -0.00001956       0.00000448
Pb       1.20103978      23.56674204       4.37131166       0.00001634       0.00002502      -0.00000856
Pb      29.22304449      23.59698504       4.04200731      -0.00001435       0.00002046       0.00000355
Pb       7.81581126       2.71459611       8.48935526      -0.00001143      -0.00000540       0.00000284
Pb      11.81895963       2.70577755       8.44231579      -0.00001194      -0.00000225       0.00001905
Pb       9.20732832      23.57204170       4.27732473       0.00001967       0.00001117      -0.00002052
Pb       5.20418804      23.58085770       4.32430716      -0.00002666       0.00000599      -0.00000212
I        1.64936761      17.93129361       2.31962015      -0.00000692      -0.00000103       0.00001041
I       31.27813425      22.28362662       1.84136179      -0.00000306      -0.00001033       0.00001798
I        1.69726135      17.92730149       6.40091692       0.00001125      -0.00000869       0.00000367
I       31.32922770      22.27940087       6.19120186       0.00000408      -0.00001058      -0.00000046
I        3.30557568      21.05275719       4.34420210       0.00000624      -0.00000806      -0.00001408
I       29.72097716      19.15394842       8.24807036      -0.00000992      -0.00001885      -0.00001124
I        3.30552187      24.88289963       6.52305796       0.00000363      -0.00001323      -0.00000162
I       29.73018210       1.41454324       6.05532229       0.00000440       0.00000324       0.00001498
I        3.25444452      24.88707838       2.17324653      -0.00001372      -0.00000544       0.00001002
I       29.68222177       1.41858266       1.97406098      -0.00000030      -0.00000873      -0.00001069
I        1.71144207       0.18362327       8.55858018       0.00000324       0.00002594       0.00002247
I       31.32427405      26.11378208       4.01975234       0.00001003      -0.00001414      -0.00000013
I        9.65564463      17.93668834       2.22555438      -0.00000791       0.00000241       0.00000666
I        7.25931051      22.26742373       2.12372159      -0.00000901       0.00000224      -0.00000342
I        9.70353754      17.93260215       6.30682846       0.00000599       0.00002233      -0.00000650
I        7.31034434      22.26329180       6.47354678       0.00000815      -0.00002298       0.00000560
I       11.31192603      21.05809358       4.25020401      -0.00001381       0.00001222      -0.00001195
I        5.70206628      19.13775635       8.53019218       0.00000001       0.00001157       0.00000558
I       11.31180772      24.88828552       6.42903106      -0.00000824      -0.00002097      -0.00000460
I        5.71134715       1.39841222       6.33758724       0.00000499       0.00000720       0.00002281
I       11.26063256      24.89241899       2.07922691       0.00002073      -0.00000246       0.00000434
I        5.66345044       1.40240748       2.25630624      -0.00001983      -0.00000359       0.00000001
I        9.71768930       0.18900552       8.46460308       0.00002103       0.00000871      -0.00000649
I        7.30544270      26.09763166       4.30204995      -0.00000298      -0.00000499       0.00000317
Cs      30.52826252      18.81073640      12.45425648      -0.00000140      -0.00000140       0.00001086
Cs       2.69643040      21.37944155      17.00001953       0.00000794       0.00001244      -0.00000844
Cs      30.61651114      25.76957438       8.24397020      -0.00000241       0.00000065      -0.00002248
Cs       2.51825902       0.51958477      12.76556078       0.00001625      -0.00000144       0.00000893
Cs       6.50935076      18.79460734      12.73653289      -0.00001290       0.00000565       0.00001606
Cs      10.50459650      21.40123855       0.04378396      -0.00001228       0.00002224      -0.00001144
Cs       6.59763892      25.75348783       8.52620591      -0.00001183      -0.00000956       0.00000245
Cs      10.52458617       0.52492777      12.67153858      -0.00001186       0.00000822      -0.00000264
Pb      31.93373368       2.72244185      16.63818965       0.00001211      -0.00000428       0.00000770
Pb       3.71361916       2.70859335       0.10528136       0.00001149       0.00000565      -0.00000517
Pb       1.30011502      23.55850835      12.80247682       0.00004048      -0.00002225       0.00000179
Pb      29.32210412      23.58872828      12.47313488      -0.00001832       0.00000359      -0.00000127
Pb       7.71675646       2.72279355       0.05821945      -0.00002884       0.00000331       0.00000355
Pb      11.71989994       2.71408738       0.01123831      -0.00002111      -0.00001860      -0.00000456
Pb       9.30638113      23.56381948      12.70832481       0.00001326       0.00001629       0.00001576
Pb       5.30324992      23.57262995      12.75539653      -0.00004582       0.00000176       0.00001351
I        1.74849787      17.92300658      10.75074300      -0.00001916       0.00000867      -0.00001224
I       31.37724216      22.27538346      10.27251848      -0.00001147       0.00000076      -0.00001042
I        1.79631722      17.91899668      14.83200946       0.00001472       0.00001721       0.00000378
I       31.42827253      22.27113167      14.62232251       0.00000275      -0.00000711       0.00001087
I        3.40464876      21.04451287      12.77539053       0.00000589       0.00001220      -0.00002151
I       29.81999780      19.14563739      16.67911831       0.00000291       0.00000125       0.00000007
I        3.40464077      24.87472240      14.95417059       0.00000009      -0.00002640      -0.00001926
I       29.82924959       1.40630253      14.48643238      -0.00000243       0.00000417      -0.00000822
I        3.35343453      24.87879126      10.60433581       0.00001180       0.00001455       0.00001419
I       29.78127782       1.41026749      10.40513711       0.00001292      -0.00000531       0.00001212
I        1.61232297       0.19184507       0.12757724      -0.00000679       0.00001793      -0.00000647
I       31.42334349      26.10552691      12.45091829      -0.00002117       0.00001449      -0.00000322
I        9.75469038      17.92843097      10.65665414       0.00000332       0.00000199       0.00000585
I        7.35832390      22.25916844      10.55478973      -0.00000700       0.00000972      -0.00001123
I        9.80262813      17.92439393      14.73793934       0.00001675       0.00002216      -0.00002283
I        7.40944619      22.25506445      14.90459391       0.00000875      -0.00000921       0.00000915
I       11.41096728      21.04987256      12.68119549      -0.00001078      -0.00001758       0.00000542
I        5.60300101      19.14604027       0.09909821       0.00000868      -0.00001405       0.00000889
I       11.41079284      24.87999402      14.86013417       0.00001373      -0.00001951      -0.00001552
I        5.81039722       1.39010598      14.76869697       0.00000711       0.00001382       0.00000814
I       11.35977584      24.88422809      10.51031454       0.00000118      -0.00000354      -0.00000406
I        5.76245032       1.39424921      10.68742737      -0.00000667      -0.00000596      -0.00001896
I        9.61870883       0.19724953       0.03345960      -0.00000353       0.00000412       0.00000750
I        7.40449215      26.08941641      12.73303287       0.00000788      -0.00002845       0.00000915
Cs      14.42581603       4.89897500       4.19767762      -0.00001718       0.00002039       0.00000167
Cs      18.61907900       7.48913661       8.36706411       0.00001150       0.00001152       0.00001198
Cs      14.51399907      11.85784842      -0.01266028       0.00000556      -0.00000775      -0.00000525
Cs      18.42261493      14.44780070       4.16002412      -0.00000562       0.00000139       0.00000400
Cs      22.43198797       4.90429084       4.10352936       0.00000241       0.00000962       0.00001357
Cs      26.62539105       7.49449435       8.27297476       0.00000593      -0.00000353       0.00000756
Cs      22.52033770      11.86311064      -0.10672843      -0.00000722       0.00001995      -0.00001613
Cs      26.42890069      14.45318744       4.06598779      -0.00001205      -0.00001190      -0.00000856
Pb      15.81292112      16.62920854       8.40899904      -0.00000940      -0.00001075      -0.00000767
Pb      19.81607382      16.62034055       8.36197325       0.00002830       0.00001956      -0.00001785
Pb      17.22279236       9.66824254       4.16954268       0.00000544       0.00000679      -0.00001974
Pb      13.21962804       9.67698933       4.21652762       0.00001134       0.00000403       0.00000296
Pb      23.81922058      16.63457137       8.31487098      -0.00002794       0.00000489       0.00001145
Pb      27.82236805      16.62583687       8.26784947       0.00001655       0.00001579      -0.00001065
Pb      25.22905381       9.67351988       4.07536431      -0.00000754      -0.00000517       0.00000535
Pb      21.22592046       9.68234795       4.12248742      -0.00001791       0.00000401      -0.00000918
I       17.67114945       4.03276672       2.11777523      -0.00000739      -0.00000788       0.00000897
I       15.27478362       8.36369724       2.01590641      -0.00001964      -0.00001932      -0.00000440
I       17.71904947       4.02874957       6.19906826       0.00000159       0.00001604      -0.00001648
I       15.32580860       8.35938796       6.36571704       0.00000350      -0.00002223       0.00001884
I       19.32731955       7.15424477       4.14236083      -0.00000863       0.00000185       0.00000656
I       13.71753817       5.23390104       8.42252517       0.00001193       0.00000994      -0.00001132
I       19.32729988      10.98440295       6.32127986      -0.00000004      -0.00001824      -0.00001519
I       13.70844721      15.31307439       6.25722299      -0.00000833      -0.00000383       0.00001158
I       19.27614314      10.98857497       1.97144682       0.00000018      -0.00000289       0.00002080
I       13.66050560      15.31706092       2.17595129      -0.00000987       0.00001151      -0.00001530
I       17.71477637      14.10359959       8.38426367       0.00002169      -0.00000674      -0.00000761
I       15.32085872      12.19380244       4.19437427      -0.00000086      -0.00001646      -0.00001056
I       25.67734777       4.03814327       2.02365052       0.00000060      -0.00001389       0.00000151
I       23.28094714       8.36897496       1.92178407       0.00002416       0.00000791       0.00000513
I       25.72529531       4.03415332       6.10494194       0.00001023      -0.00000850       0.00000605
I       23.33214599       8.36463518       6.27157403      -0.00000509       0.00002694       0.00002161
I       27.33364548       7.15958345       4.04815281      -0.00000026      -0.00000241       0.00000616
I       21.72380577       5.23928153       8.32843707      -0.00000573      -0.00001681      -0.00001051
I       27.33346785      10.98967748       6.22716390       0.00001083       0.00000677       0.00001028
I       21.71471256      15.31835789       6.16315776       0.00001232       0.00001125       0.00001007
I       27.28241847      10.99398049       1.87735180      -0.00000280       0.00000760      -0.00001264
I       21.66681192      15.32234574       2.08185844       0.00001186       0.00000175      -0.00000452
I       25.72117543      14.10902497       8.29008288      -0.00000262      -0.00003159      -0.00000272
I       23.32718770      12.19911682       4.10026376      -0.00001164      -0.00000879      -0.00000659
Cs      14.52482013       4.89077603      12.62879234       0.00000810      -0.00000215      -0.00000725
Cs      18.71818868       7.48091887      16.79819067       0.00000142       0.00000863      -0.00000517
Cs      14.61304271      11.84958943       8.41842018       0.00000022       0.00000423      -0.00000224
Cs      18.52171042      14.43955213      12.59109607      -0.00001111      -0.00000325       0.00002083
Cs      22.53107730       4.89609307      12.53467342      -0.00000296      -0.00000201       0.00000090
Cs      26.52634061       7.50277707      -0.15809612      -0.00000442      -0.00000926       0.00000107
Cs      22.61948182      11.85491004       8.32436202      -0.00002253      -0.00000808      -0.00000649
Cs      26.52793306      14.44493992      12.49702179       0.00000763       0.00000330       0.00000867
Pb      15.91198582      16.62096840      16.84007055       0.00005296      -0.00002199       0.00003672
Pb      19.71701538      16.62860671      -0.06913697      -0.00004057       0.00000991       0.00000796
Pb      17.32184380       9.65997939      12.60058977       0.00002878      -0.00001105       0.00000787
Pb      13.31869263       9.66876623      12.64764772      -0.00004590      -0.00000656       0.00000873
Pb      23.72014220      16.64277967      -0.11621255      -0.00001398      -0.00000411       0.00001693
Pb      27.72328326      16.63397341      -0.16327160       0.00001330       0.00001910      -0.00000373
Pb      25.32811862       9.66528636      12.50650077      -0.00001672      -0.00002423       0.00001663
Pb      21.32497891       9.67407760      12.55357551      -0.00002739       0.00000027      -0.00000493
I       17.77013630       4.02450579      10.54887184       0.00000529       0.00000622       0.00001394
I       15.37377518       8.35540385      10.44700965       0.00000118      -0.00000647      -0.00001811
I       17.81812161       4.02050190      14.63016079      -0.00000765       0.00001022      -0.00000981
I       15.42490263       8.35116159      14.79681474      -0.00000650      -0.00001286       0.00001204
I       19.42636596       7.14597429      12.57344298       0.00000676       0.00002056      -0.00000745
I       13.81659941       5.22574078      16.85367865       0.00002385       0.00001398      -0.00000779
I       19.42632925      10.97612979      14.75235058      -0.00000259      -0.00001468      -0.00001296
I       13.80750777      15.30479150      14.68833572      -0.00000386       0.00002378      -0.00000804
I       19.37523367      10.98030996      10.40252220       0.00000189       0.00000668       0.00001067
I       13.75954477      15.30882159      10.60702994       0.00001207       0.00000553       0.00002825
I       17.61574784      14.11183698      -0.04687820       0.00000029       0.00003603      -0.00000884
I       15.41993697      12.18555049      12.62542458      -0.00000959       0.00001068      -0.00001536
I       25.77642704       4.02991871      10.45475465       0.00000261      -0.00001248       0.00000547
I       23.38005223       8.36072234      10.35290503       0.00001967       0.00002063      -0.00000273
I       25.82433650       4.02588904      14.53604855       0.00000680       0.00001195      -0.00000625
I       23.43118398       8.35640946      14.70270944       0.00000789       0.00000757       0.00000627
I       27.43269368       7.15133405      12.47935422       0.00000617       0.00000054      -0.00001039
I       21.62471450       5.24745439      -0.10261746       0.00001809       0.00000706      -0.00002814
I       27.43258765      10.98147976      14.65824378      -0.00000401       0.00000225       0.00001210
I       21.81378105      15.31017696      14.59424029       0.00001047      -0.00001106      -0.00000568
I       27.38144529      10.98567205      10.30843186      -0.00000687       0.00001987      -0.00000875
I       21.76593969      15.31413076      10.51295944      -0.00002016       0.00000450      -0.00000113
I       25.62203399      14.11720116      -0.14105982       0.00000998      -0.00000196       0.00000325
I       23.42622155      12.19086544      12.53138218      -0.00000498      -0.00000260      -0.00000585
Cs      14.41663352      18.80823834       4.21141624      -0.00000031       0.00000752      -0.00000911
Cs      18.60995122      21.39839941       8.38078037      -0.00000703       0.00000603       0.00001114
Cs      14.50475283      25.76710531       0.00104425       0.00002508       0.00000440      -0.00000875
Cs      18.43178165       0.53856350       4.14634579      -0.00000651      -0.00001107      -0.00000198
Cs      22.42283872      18.81354327       4.11729616       0.00001065       0.00001295      -0.00000092
Cs      26.61626556      21.40381748       8.28665507      -0.00001049      -0.00000942       0.00000328
Cs      22.51120883      25.77240401      -0.09310314       0.00000194      -0.00000019       0.00001366
Cs      26.43805215       0.54393883       4.05222908      -0.00000847      -0.00000438      -0.00000220
Pb      15.82208832       2.71992866       8.39527651      -0.00000489       0.00000274       0.00000591
Pb      19.82524866       2.71114786       8.34824293       0.00000287      -0.00000070      -0.00001473
Pb      17.21364038      23.57747355       4.18318874      -0.00002892      -0.00001062       0.00000254
Pb      13.21046881      23.58624195       4.23026166       0.00000163       0.00001091       0.00000801
Pb      23.82837527       2.72532374       8.30117055       0.00000772      -0.00000325       0.00000091
Pb      27.83151984       2.71653010       8.25411765      -0.00000084       0.00000214      -0.00001285
Pb      25.21990993      23.58279603       4.08911116      -0.00001447       0.00000910       0.00000095
Pb      21.21676466      23.59158388       4.13614431       0.00001226       0.00000174       0.00001270
I       17.66190034      17.94203106       2.13147002       0.00000714      -0.00002229      -0.00001997
I       15.26555596      22.27292367       2.02959916      -0.00000059      -0.00002071       0.00000307
I       17.70991875      17.93795242       6.21276710      -0.00000391       0.00001092      -0.00000095
I       15.31669571      22.26866544       6.37943147      -0.00000110      -0.00000639      -0.00001714
I       19.31816101      21.06347042       4.15600252       0.00000030       0.00001270      -0.00000108
I       13.70837563      19.14318916       8.43611443      -0.00000229       0.00000750       0.00002861
I       19.31812798      24.89359249       6.33494191      -0.00000890       0.00000254       0.00001309
I       13.71759885       1.40382898       6.24349321       0.00001582      -0.00000904       0.00000899
I       19.26699396      24.89786223       1.98513684       0.00000408       0.00000310      -0.00001628
I       13.66967137       1.40776864       2.16222445       0.00000231       0.00000257       0.00001742
I       17.72400367       0.19436065       8.37044683      -0.00000055      -0.00001058       0.00000641
I       15.31171763      26.10303462       4.20806018      -0.00000962       0.00000576      -0.00002105
I       25.66820441      17.94734392       2.03737679       0.00000675       0.00001051       0.00001368
I       23.27186288      22.27825389       1.93549101      -0.00000636      -0.00001258      -0.00000513
I       25.71616535      17.94340218       6.11865630      -0.00001356       0.00001732      -0.00001604
I       23.32295832      22.27394707       6.28531587      -0.00000152      -0.00000615      -0.00001021
I       27.32448293      21.06884633       4.06190035      -0.00000260      -0.00001321       0.00000189
I       21.71461843      19.14849089       8.34209145       0.00001230      -0.00000482      -0.00000161
I       27.32441915      24.89902207       6.24079720      -0.00000438      -0.00002107       0.00001185
I       21.72389108       1.40918658       6.14941157      -0.00000088       0.00000458       0.00000907
I       27.27319601      24.90318219       1.89100027       0.00001652       0.00000982      -0.00000437
I       21.67596639       1.41301358       2.06810566      -0.00000491       0.00001745       0.00000677
I       25.73028377       0.19974146       8.27635505      -0.00000495       0.00001589       0.00000624
I       23.31800812      26.10836812       4.11399428      -0.00000404      -0.00000195      -0.00001248