768
Lattice="31.499382453530327 -0.22572629977263156 0.31614791972064205 0.14246004703112958 29.784771078059237 0.6444902123790458 0.29946191669146544 -0.22987099178593717 17.071157384917306" Properties=species:S:1:pos:R:3:forces:R:3 energy=-3353.227973744469 stress="0.0012156515917360114 -7.257665249216085e-05 -3.0646544900913105e-05 -7.257665249216085e-05 0.002141093456684563 0.00018343574256969705 -3.0646544900913105e-05 0.00018343574256969705 0.001432805703955018" free_energy=-3353.227973744469 pbc="T T T"
I        5.31091435       1.45320441       4.16109463       0.00001180       0.00000418      -0.00000434
I        3.06672052       6.33277757       3.37331802      -0.00000900       0.00000114      -0.00001179
I        5.52632568       1.60416030       8.34854982       0.00000923      -0.00000501       0.00001357
I        3.00106307       6.06693694       7.72145171      -0.00000122      -0.00000484       0.00001552
I        7.00561004       5.00006778       5.51974270       0.00000494      -0.00001216       0.00000404
I        1.52171200       2.67100716      10.55023614      -0.00000959       0.00001656       0.00001242
H        0.83598884       2.68366455       6.70205408       0.00001620      -0.00000158      -0.00000974
H        6.72340311       6.45765205       1.68411674      -0.00000586      -0.00000715       0.00000399
H        1.65426655       1.32839655       5.85017935      -0.00000771      -0.00003013      -0.00001261
H        7.54181538       5.10232755       0.83246561       0.00000454      -0.00001863      -0.00001582
H        2.42995268       2.09165407       7.27812129       0.00001485       0.00000033      -0.00000227
H        5.94788486       5.69421026       0.25617750       0.00000025       0.00000821       0.00000728
H        3.40316596       2.86255097       5.18180795      -0.00000355       0.00000619      -0.00001054
H        6.43980088       4.34147177       2.87682929      -0.00001371       0.00001023       0.00000582
H        2.66995495       4.14243962       6.00765931      -0.00001125       0.00001860       0.00000409
H        5.70778182       3.64357488       1.52680957      -0.00000176       0.00000068      -0.00000739
H        1.93787352       3.44463870       4.65762804      -0.00001127      -0.00000765      -0.00000838
H        4.97453148       4.92351626       2.35254238       0.00001170      -0.00001389      -0.00000115
C        1.80072529       2.26390837       6.40017040      -0.00003332       0.00004321       0.00001582
C        6.57703267       5.52207581       1.13420934      -0.00001655       0.00001713      -0.00000544
Pb       3.63262172      15.02192860      10.73919458       0.00000430      -0.00000945       0.00000391
Pb      31.19530270      14.75033351      11.01628319      -0.00000169      -0.00000589      -0.00001939
N        2.49112437       3.24298050       5.51042820       0.00001693      -0.00001630       0.00001022
N        5.88658834       4.54306795       2.02398679      -0.00000202      -0.00000553       0.00002010
I        6.96038302       9.01459702       7.81746959      -0.00000386      -0.00000232       0.00000614
I        1.63818540      13.54890379       8.57475651      -0.00001110      -0.00000740      -0.00000417
I        7.01727943       8.91259008       3.46617544       0.00000523      -0.00000087      -0.00000336
I        1.43159676      13.76580207       4.39046980      -0.00000892       0.00000312       0.00001584
I        5.34611005      12.52027081       2.26732479      -0.00001231       0.00000623      -0.00000254
I        3.10269335      10.15810352       5.58931411      -0.00002092      -0.00000262       0.00001587
H        2.17734945       9.56577138       8.82546478      -0.00001685      -0.00000956      -0.00001942
H        5.64651636      13.84248826       6.18477223      -0.00000870      -0.00001538       0.00000087
H        3.78366804      10.10530585       9.41811834       0.00000324      -0.00000318       0.00000730
H        4.81470589      12.45827887       6.97401080      -0.00001961      -0.00001972       0.00001149
H        2.95212575       8.72107366      10.20760310      -0.00001172       0.00001733      -0.00001195
H        6.42102907      12.99753452       7.56690264       0.00001002       0.00001306       0.00001497
H        1.97424925      11.55267678      10.19808748       0.00001045       0.00000112      -0.00001410
H        5.88933019      11.78247612       4.88645313      -0.00001168      -0.00000594      -0.00001588
H        2.70913649      10.78110369      11.50577004      -0.00002083       0.00001394      -0.00002856
H        6.62413582      11.01079963       6.19412139       0.00001388      -0.00002402       0.00002057
H        1.23114794      10.24431483      10.96789893      -0.00000376      -0.00000515      -0.00000159
H        7.36732579      12.31915820       5.42440262       0.00000922       0.00001475       0.00000011
C        2.81505351       9.68490445       9.70619894       0.00003022      -0.00001051       0.00001213
C        5.78340718      12.87858414       6.68608414       0.00003087       0.00001724      -0.00003879
Pb       4.96595451       7.54155538       5.65302577       0.00000368      -0.00000429      -0.00000410
Pb       8.90264072       7.58740391       5.69212900       0.00000246      -0.00000145      -0.00001409
N        2.14583333      10.62791482      10.64937641       0.00001220      -0.00000285       0.00003490
N        6.45260930      11.93559129       5.74287524      -0.00000201       0.00000549       0.00001081
I       13.18570256       1.39677589       4.24016610      -0.00000573       0.00000839       0.00001425
I       10.94158149       6.27630912       3.45236174      -0.00000182      -0.00000754       0.00000840
I       13.40116798       1.54766549       8.42761067      -0.00000440      -0.00000733       0.00000548
I       10.87579665       6.01048402       7.80048799      -0.00000213      -0.00000990      -0.00000513
I       14.88049569       4.94359673       5.59884973      -0.00000084       0.00000037       0.00000313
I        9.39655839       2.61452764      10.62929344       0.00001314       0.00001306      -0.00001146
H        9.52900290       1.27192237       5.92930793       0.00000357       0.00002126       0.00000911
H       13.82234217       5.63795482       0.33546380       0.00001140      -0.00000986       0.00000181
H       10.30470155       2.03524189       7.35721223       0.00000484       0.00000119      -0.00001045
H       14.59825468       6.40110465       1.76333873       0.00000445      -0.00001157      -0.00001747
H        8.71072500       2.62721376       6.78114720      -0.00002759       0.00002251      -0.00001155
H       15.41637416       5.04586294       0.91126466       0.00000440      -0.00000639       0.00001470
H        9.81258510       3.38810914       4.73666358      -0.00002076       0.00000595      -0.00001600
H       12.84936563       4.86693199       2.43179197       0.00003292      -0.00001324      -0.00000344
H       11.27788956       2.80608893       5.26087501       0.00001442      -0.00001433      -0.00000610
H       14.31471487       4.28486658       2.95584637      -0.00000837      -0.00000797      -0.00000435
H       10.54464011       4.08599122       6.08667042       0.00001003      -0.00000574      -0.00001798
H       13.58254049       3.58706914       1.60586464       0.00001283      -0.00000471      -0.00001355
C        9.67545975       2.20745744       6.47926344       0.00004053      -0.00003089      -0.00003215
C       14.45169374       5.46562768       1.21331228      -0.00000399       0.00001687      -0.00000138
Pb      11.50746302      14.96544245      10.81824963       0.00000728      -0.00001008       0.00000103
Pb       7.57076256      14.91960004      10.77910093       0.00000310      -0.00000937       0.00000771
N       10.36583727       3.18650579       5.58947641      -0.00000741       0.00001277       0.00006363
N       13.76139075       4.48652512       2.10309447      -0.00003522       0.00001879       0.00002290
I       14.83520775       8.95806275       7.89659234      -0.00000536       0.00000315      -0.00001255
I        9.51306177      13.49242984       8.65375389      -0.00000273       0.00000719       0.00001761
I       14.89210902       8.85610347       3.54527879       0.00002133       0.00000187      -0.00000325
I        9.30636908      13.70933879       4.46948492       0.00000393      -0.00000323       0.00000113
I       13.22100691      12.46382335       2.34641165      -0.00000144       0.00001458       0.00000267
I       10.97756999      10.10164227       5.66833462       0.00001216      -0.00000242      -0.00000448
H       10.05239225       9.50927482       8.90444240       0.00000380      -0.00000018       0.00000774
H       14.29593745      12.94113472       7.64586603       0.00001339       0.00000806       0.00000173
H       11.65866757      10.04882968       9.49719488      -0.00000148      -0.00001210       0.00001265
H       13.52142709      13.78592006       6.26363064      -0.00000532       0.00001438       0.00000537
H       10.82708459       8.66459895      10.28663987      -0.00000159      -0.00000408       0.00001066
H       12.68965870      12.40174403       7.05297088       0.00000105       0.00000924       0.00000874
H       10.58399511      10.72464831      11.58476632      -0.00000478       0.00000195      -0.00001569
H       14.49912927      10.95425840       6.27325260       0.00001040      -0.00000312       0.00000814
H        9.10604534      10.18783325      11.04681041       0.00001145       0.00001350       0.00002364
H       15.24235251      12.26258341       5.50349726      -0.00001508       0.00000404      -0.00001383
H        9.84917883      11.49619292      10.27702675      -0.00000402      -0.00000875       0.00000234
H       13.76439646      11.72584645       4.96548987      -0.00001475      -0.00000165       0.00000265
C       10.69003797       9.62842306       9.78521818      -0.00001662       0.00002187      -0.00003990
C       13.65834991      12.82207064       6.76503763      -0.00002985      -0.00001895       0.00000212
Pb      12.84078591       7.48505121       5.73211500      -0.00000132       0.00000769      -0.00001687
Pb      16.77749680       7.53092571       5.77122198       0.00000360       0.00000264      -0.00001724
N       10.02074726      10.57143904      10.72834075       0.00000199      -0.00000903       0.00001048
N       14.32762277      11.87902156       5.82193623       0.00003120       0.00001586       0.00000462
I        5.46064531       1.33826891      12.69667332       0.00001180       0.00000418      -0.00000433
I        3.21645148       6.21784207      11.90889671      -0.00000900       0.00000114      -0.00001179
I        5.67605664       1.48922480      16.88412851       0.00000923      -0.00000501       0.00001358
I        3.15079403       5.95200144      16.25703040      -0.00000122      -0.00000484       0.00001552
I        7.15534100       4.88513228      14.05532139       0.00000494      -0.00001216       0.00000404
I        1.37198104       2.78594266       2.01465745      -0.00000959       0.00001656       0.00001242
H        0.98571980       2.56872905      15.23763277       0.00001620      -0.00000158      -0.00000974
H        6.87313407       6.34271655      10.21969543      -0.00000586      -0.00000715       0.00000399
H        1.80399751       1.21346105      14.38575804      -0.00000771      -0.00003013      -0.00001261
H        7.69154634       4.98739205       9.36804430       0.00000454      -0.00001863      -0.00001582
H        2.57968364       1.97671857      15.81369998       0.00001485       0.00000033      -0.00000227
H        6.09761582       5.57927476       8.79175619       0.00000025       0.00000821       0.00000728
H        3.55289692       2.74761547      13.71738664      -0.00000355       0.00000619      -0.00001054
H        6.58953184       4.22653627      11.41240798      -0.00001371       0.00001023       0.00000582
H        2.81968591       4.02750412      14.54323800      -0.00001125       0.00001860       0.00000409
H        5.85751278       3.52863938      10.06238826      -0.00000176       0.00000068      -0.00000739
H        2.08760448       3.32970320      13.19320673      -0.00001127      -0.00000765      -0.00000838
H        5.12426244       4.80858076      10.88812107       0.00001170      -0.00001389      -0.00000115
C        1.95045625       2.14897287      14.93574909      -0.00003332       0.00004321       0.00001582
C        6.72676363       5.40714031       9.66978803      -0.00001655       0.00001713      -0.00000544
Pb       3.48289076      15.13686410       2.20361589       0.00000432      -0.00000947       0.00000390
Pb      31.04557175      14.86526901       2.48070450      -0.00000173      -0.00000591      -0.00001941
N        2.64085533       3.12804500      14.04600689       0.00001693      -0.00001630       0.00001022
N        6.03631930       4.42813245      10.55956548      -0.00000201      -0.00000552       0.00002010
I        7.11011398       8.89966152      16.35304828      -0.00000386      -0.00000232       0.00000614
I        1.78791636      13.43396829      17.11033520      -0.00001110      -0.00000738      -0.00000416
I        7.16701039       8.79765458      12.00175413       0.00000523      -0.00000087      -0.00000336
I        1.58132772      13.65086657      12.92604849      -0.00000892       0.00000312       0.00001583
I        5.49584101      12.40533531      10.80290348      -0.00001232       0.00000623      -0.00000254
I        3.25242431      10.04316802      14.12489280      -0.00002092      -0.00000262       0.00001587
H        2.02761849       9.68070688       0.28988609      -0.00001685      -0.00000956      -0.00001942
H        5.79624732      13.72755276      14.72035092      -0.00000870      -0.00001538       0.00000087
H        3.63393708      10.22024135       0.88253965       0.00000324      -0.00000318       0.00000730
H        4.96443685      12.34334337      15.50958949      -0.00001961      -0.00001972       0.00001149
H        2.80239479       8.83600916       1.67202441      -0.00001172       0.00001733      -0.00001195
H        6.57076003      12.88259902      16.10248133       0.00001002       0.00001306       0.00001497
H        1.82451829      11.66761228       1.66250879       0.00001045       0.00000112      -0.00001411
H        6.03906115      11.66754062      13.42203182      -0.00001168      -0.00000594      -0.00001588
H        2.55940553      10.89603919       2.97019135      -0.00002083       0.00001394      -0.00002856
H        6.77386678      10.89586413      14.72970008       0.00001388      -0.00002402       0.00002057
H        1.08141698      10.35925033       2.43232024      -0.00000376      -0.00000515      -0.00000159
H        7.51705675      12.20422270      13.95998131       0.00000922       0.00001475       0.00000011
C        2.66532255       9.79983995       1.17062025       0.00003022      -0.00001051       0.00001213
C        5.93313814      12.76364864      15.22166283       0.00003087       0.00001724      -0.00003879
Pb       5.11568547       7.42661988      14.18860446       0.00000368      -0.00000429      -0.00000410
Pb       9.05237168       7.47246841      14.22770769       0.00000246      -0.00000145      -0.00001409
N        1.99610237      10.74285032       2.11379772       0.00001220      -0.00000286       0.00003490
N        6.60234026      11.82065579      14.27845393      -0.00000201       0.00000549       0.00001081
I       13.33543352       1.28184039      12.77574479      -0.00000573       0.00000840       0.00001425
I       11.09131245       6.16137362      11.98794043      -0.00000182      -0.00000754       0.00000840
I       13.55089894       1.43272999      16.96318936      -0.00000440      -0.00000732       0.00000549
I       11.02552761       5.89554852      16.33606668      -0.00000213      -0.00000990      -0.00000513
I       15.03022665       4.82866123      14.13442842      -0.00000084       0.00000037       0.00000313
I        9.24682743       2.72946314       2.09371475       0.00001314       0.00001306      -0.00001146
H        9.67873386       1.15698687      14.46488662       0.00000357       0.00002126       0.00000911
H       13.97207313       5.52301932       8.87104249       0.00001140      -0.00000986       0.00000181
H       10.45443251       1.92030639      15.89279092       0.00000484       0.00000119      -0.00001045
H       14.74798564       6.28616915      10.29891742       0.00000445      -0.00001157      -0.00001747
H        8.86045596       2.51227826      15.31672589      -0.00002759       0.00002251      -0.00001155
H       15.56610512       4.93092744       9.44684335       0.00000440      -0.00000639       0.00001470
H        9.96231606       3.27317364      13.27224227      -0.00002076       0.00000595      -0.00001600
H       12.99909659       4.75199649      10.96737066       0.00003292      -0.00001324      -0.00000344
H       11.42762052       2.69115343      13.79645370       0.00001442      -0.00001433      -0.00000610
H       14.46444583       4.16993108      11.49142506      -0.00000837      -0.00000797      -0.00000435
H       10.69437107       3.97105572      14.62224911       0.00001003      -0.00000574      -0.00001798
H       13.73227145       3.47213364      10.14144333       0.00001283      -0.00000472      -0.00001355
C        9.82519071       2.09252194      15.01484213       0.00004053      -0.00003089      -0.00003215
C       14.60142470       5.35069218       9.74889097      -0.00000400       0.00001686      -0.00000137
Pb      11.35773206      15.08037795       2.28267094       0.00000729      -0.00001010       0.00000101
Pb       7.42103160      15.03453554       2.24352224       0.00000311      -0.00000939       0.00000769
N       10.51556823       3.07157029      14.12505510      -0.00000742       0.00001277       0.00006363
N       13.91112171       4.37158962      10.63867316      -0.00003522       0.00001880       0.00002291
I       14.98493871       8.84312725      16.43217103      -0.00000536       0.00000315      -0.00001255
I        9.66279273      13.37749434      17.18933258      -0.00000274       0.00000720       0.00001763
I       15.04183998       8.74116797      12.08085748       0.00002133       0.00000187      -0.00000325
I        9.45610004      13.59440329      13.00506361       0.00000393      -0.00000323       0.00000113
I       13.37073787      12.34888785      10.88199034      -0.00000145       0.00001458       0.00000267
I       11.12730095       9.98670677      14.20391331       0.00001216      -0.00000242      -0.00000448
H        9.90266129       9.62421032       0.36886371       0.00000380      -0.00000018       0.00000774
H       14.44566841      12.82619922      16.18144472       0.00001339       0.00000806       0.00000173
H       11.50893661      10.16376518       0.96161619      -0.00000148      -0.00001210       0.00001265
H       13.67115805      13.67098456      14.79920933      -0.00000532       0.00001438       0.00000537
H       10.67735363       8.77953445       1.75106118      -0.00000159      -0.00000408       0.00001066
H       12.83938966      12.28680853      15.58854957       0.00000105       0.00000924       0.00000874
H       10.43426415      10.83958381       3.04918763      -0.00000478       0.00000195      -0.00001569
H       14.64886023      10.83932290      14.80883129       0.00001040      -0.00000312       0.00000814
H        8.95631438      10.30276875       2.51123172       0.00001145       0.00001350       0.00002363
H       15.39208347      12.14764791      14.03907595      -0.00001508       0.00000404      -0.00001383
H        9.69944787      11.61112842       1.74144806      -0.00000403      -0.00000874       0.00000234
H       13.91412742      11.61091095      13.50106856      -0.00001475      -0.00000165       0.00000265
C       10.54030701       9.74335856       1.24963949      -0.00001662       0.00002187      -0.00003990
C       13.80808087      12.70713514      15.30061632      -0.00002985      -0.00001895       0.00000212
Pb      12.99051687       7.37011571      14.26769369      -0.00000132       0.00000769      -0.00001687
Pb      16.92722776       7.41599021      14.30680067       0.00000360       0.00000264      -0.00001724
N        9.87101630      10.68637454       2.19276206       0.00000199      -0.00000904       0.00001048
N       14.47735373      11.76408606      14.35751492       0.00003120       0.00001586       0.00000462
I        5.38214437      16.34558995       4.48333974       0.00001180       0.00000418      -0.00000434
I        3.13795054      21.22516311       3.69556313      -0.00000900       0.00000113      -0.00001180
I        5.59755570      16.49654584       8.67079493       0.00000924      -0.00000501       0.00001357
I        3.07229309      20.95932248       8.04369682      -0.00000122      -0.00000484       0.00001553
I        7.07684006      19.89245332       5.84198781       0.00000494      -0.00001216       0.00000404
I        1.59294202      17.56339270      10.87248125      -0.00000958       0.00001656       0.00001242
H        0.90721886      17.57605009       7.02429919       0.00001620      -0.00000158      -0.00000974
H        6.79463313      21.35003759       2.00636185      -0.00000586      -0.00000715       0.00000399
H        1.72549657      16.22078209       6.17242446      -0.00000771      -0.00003013      -0.00001261
H        7.61304540      19.99471309       1.15471072       0.00000454      -0.00001863      -0.00001582
H        2.50118270      16.98403961       7.60036640       0.00001485       0.00000033      -0.00000227
H        6.01911488      20.58659580       0.57842261       0.00000025       0.00000821       0.00000728
H        3.47439598      17.75493651       5.50405306      -0.00000355       0.00000619      -0.00001054
H        6.51103090      19.23385731       3.19907440      -0.00001372       0.00001023       0.00000582
H        2.74118497      19.03482516       6.32990442      -0.00001125       0.00001860       0.00000409
H        5.77901184      18.53596042       1.84905468      -0.00000176       0.00000068      -0.00000739
H        2.00910354      18.33702424       4.97987315      -0.00001127      -0.00000765      -0.00000837
H        5.04576150      19.81590180       2.67478749       0.00001171      -0.00001389      -0.00000115
C        1.87195531      17.15629391       6.72241551      -0.00003332       0.00004321       0.00001582
C        6.64826269      20.41446135       1.45645445      -0.00001654       0.00001713      -0.00000544
Pb       3.56139170       0.12954306      10.41694947       0.00000429      -0.00000944       0.00000393
Pb      31.12407268      -0.14205203      10.69403808      -0.00000171      -0.00000589      -0.00001938
N        2.56235439      18.13536604       5.83267331       0.00001693      -0.00001630       0.00001021
N        5.95781836      19.43545349       2.34623190      -0.00000201      -0.00000553       0.00002010
I        7.03161304      23.90698256       8.13971470      -0.00000387      -0.00000232       0.00000614
I        1.70941542      28.44128933       8.89700162      -0.00001108      -0.00000741      -0.00000419
I        7.08850945      23.80497562       3.78842055       0.00000524      -0.00000087      -0.00000336
I        1.50282678      28.65818761       4.71271491      -0.00000891       0.00000312       0.00001582
I        5.41734007      27.41265635       2.58956990      -0.00001231       0.00000622      -0.00000254
I        3.17392337      25.05048906       5.91155922      -0.00002092      -0.00000262       0.00001586
H        2.24857947      24.45815692       9.14770989      -0.00001685      -0.00000956      -0.00001942
H        5.71774638      28.73487380       6.50701734      -0.00000870      -0.00001538       0.00000087
H        3.85489806      24.99769139       9.74036345       0.00000324      -0.00000318       0.00000730
H        4.88593591      27.35066441       7.29625591      -0.00001961      -0.00001972       0.00001149
H        3.02335577      23.61345920      10.52984821      -0.00001172       0.00001733      -0.00001195
H        6.49225909      27.88992006       7.88914775       0.00001002       0.00001306       0.00001497
H        2.04547927      26.44506232      10.52033259       0.00001045       0.00000112      -0.00001410
H        5.96056021      26.67486166       5.20869824      -0.00001168      -0.00000594      -0.00001588
H        2.78036651      25.67348923      11.82801515      -0.00002083       0.00001394      -0.00002856
H        6.69536584      25.90318517       6.51636650       0.00001388      -0.00002402       0.00002057
H        1.30237796      25.13670037      11.29014404      -0.00000376      -0.00000515      -0.00000159
H        7.43855581      27.21154374       5.74664773       0.00000922       0.00001476       0.00000011
C        2.88628353      24.57728999      10.02844405       0.00003022      -0.00001051       0.00001213
C        5.85463720      27.77096968       7.00832925       0.00003087       0.00001724      -0.00003879
Pb       5.03718453      22.43394092       5.97527088       0.00000370      -0.00000429      -0.00000409
Pb       8.97387074      22.47978945       6.01437411       0.00000247      -0.00000145      -0.00001409
N        2.21706335      25.52030036      10.97162152       0.00001220      -0.00000285       0.00003490
N        6.52383932      26.82797683       6.06512035      -0.00000201       0.00000549       0.00001081
I       13.25693258      16.28916143       4.56241121      -0.00000573       0.00000839       0.00001424
I       11.01281151      21.16869466       3.77460685      -0.00000182      -0.00000754       0.00000840
I       13.47239800      16.44005103       8.74985578      -0.00000440      -0.00000733       0.00000549
I       10.94702667      20.90286956       8.12273310      -0.00000213      -0.00000990      -0.00000513
I       14.95172571      19.83598227       5.92109484      -0.00000084       0.00000037       0.00000313
I        9.46778841      17.50691318      10.95153855       0.00001314       0.00001306      -0.00001146
H        9.60023292      16.16430791       6.25155304       0.00000357       0.00002126       0.00000911
H       13.89357219      20.53034036       0.65770891       0.00001140      -0.00000986       0.00000181
H       10.37593157      16.92762743       7.67945734       0.00000484       0.00000119      -0.00001045
H       14.66948470      21.29349019       2.08558384       0.00000445      -0.00001157      -0.00001747
H        8.78195502      17.51959930       7.10339231      -0.00002759       0.00002251      -0.00001155
H       15.48760418      19.93824848       1.23350977       0.00000440      -0.00000639       0.00001470
H        9.88381512      18.28049468       5.05890869      -0.00002075       0.00000595      -0.00001599
H       12.92059565      19.75931753       2.75403708       0.00003292      -0.00001324      -0.00000344
H       11.34911958      17.69847447       5.58312012       0.00001443      -0.00001433      -0.00000610
H       14.38594489      19.17725212       3.27809148      -0.00000837      -0.00000797      -0.00000435
H       10.61587013      18.97837676       6.40891553       0.00001003      -0.00000574      -0.00001798
H       13.65377051      18.47945468       1.92810975       0.00001283      -0.00000472      -0.00001355
C        9.74668977      17.09984298       6.80150855       0.00004053      -0.00003089      -0.00003215
C       14.52292376      20.35801322       1.53555739      -0.00000400       0.00001687      -0.00000138
Pb      11.43623300       0.07305691      10.49600452       0.00000726      -0.00001007       0.00000104
Pb       7.49953254       0.02721450      10.45685582       0.00000309      -0.00000937       0.00000772
N       10.43706729      18.07889133       5.91172152      -0.00000742       0.00001277       0.00006362
N       13.83262077      19.37891066       2.42533958      -0.00003522       0.00001879       0.00002290
I       14.90643777      23.85044829       8.21883745      -0.00000536       0.00000315      -0.00001255
I        9.58429179      28.38481538       8.97599900      -0.00000272       0.00000718       0.00001759
I       14.96333904      23.74848901       3.86752390       0.00002133       0.00000187      -0.00000325
I        9.37759910      28.60172433       4.79173003       0.00000394      -0.00000323       0.00000112
I       13.29223693      27.35620889       2.66865676      -0.00000144       0.00001457       0.00000266
I       11.04880001      24.99402781       5.99057973       0.00001216      -0.00000242      -0.00000448
H       10.12362227      24.40166036       9.22668751       0.00000380      -0.00000018       0.00000774
H       14.36716747      27.83352026       7.96811114       0.00001339       0.00000806       0.00000172
H       11.72989759      24.94121522       9.81943999      -0.00000148      -0.00001210       0.00001265
H       13.59265711      28.67830560       6.58587575      -0.00000532       0.00001437       0.00000537
H       10.89831461      23.55698449      10.60888498      -0.00000159      -0.00000408       0.00001066
H       12.76088872      27.29412957       7.37521599       0.00000105       0.00000924       0.00000874
H       10.65522513      25.61703385      11.90701143      -0.00000478       0.00000195      -0.00001569
H       14.57035929      25.84664394       6.59549771       0.00001040      -0.00000312       0.00000814
H        9.17727536      25.08021879      11.36905552       0.00001145       0.00001350       0.00002364
H       15.31358253      27.15496895       5.82574237      -0.00001508       0.00000404      -0.00001383