40
Lattice="12.607758314668013 -0.030840366870307587 -0.12032513133292133 0.030705621987117418 12.400405270700675 0.3945330896886211 0.10643321532046031 0.036555346160786054 12.400466975670472" Properties=species:S:1:pos:R:3:forces:R:3 energy=-123.31183372907955 stress="0.0023308430385710595 -1.5663775257542823e-05 -3.999501041116993e-05 -1.5663775257542823e-05 0.0017192016342720356 -0.0003460663214523392 -3.999501041116993e-05 -0.0003460663214523392 0.0016473819889372828" free_energy=-123.31183372907955 pbc="T T T"
Cs      10.30342557       7.09507115       1.11550066       0.00000451      -0.00000918       0.00000372
Cs       3.97355048      -0.02438029       0.01699240      -0.00000042      -0.00001304      -0.00000471
Cs       4.02782216      -0.30547711       6.50812022      -0.00001085       0.00000548      -0.00000301
Cs      10.35765385       6.81391592       7.60659285       0.00000418      -0.00002056       0.00000421
Cs      10.34125604       0.91310841       7.11838567       0.00001652      -0.00000777       0.00000878
Cs       4.04211818       6.19406818       6.41437857       0.00000544      -0.00000172       0.00001616
Cs       3.98993427       5.87637298       0.50515336      -0.00000376       0.00000773      -0.00000223
Cs      10.28906935       0.59540726       1.20912656       0.00000904       0.00000894      -0.00001230
Pb       0.84638778      -2.79000213       3.67472248       0.00001489      -0.00000571      -0.00000761
Pb       7.16561127       3.39477662       3.81176033      -0.00001338      -0.00001098       0.00001466
Pb       0.86173129       3.41019552       3.87192523       0.00001098      -0.00000406       0.00000490
Pb       7.15025733      -2.80543530       3.61453658      -0.00001163      -0.00000721      -0.00000176
Pb       0.79316517      -2.80830425      -2.52552869       0.00002089       0.00001576      -0.00001284
Pb       7.11239037       3.37648231      -2.38846308      -0.00000475       0.00001370      -0.00000758
Pb       0.80850512       3.39190893      -2.32830916       0.00001134      -0.00000212       0.00001803
Pb       7.09704339      -2.82373950      -2.58571664      -0.00000409       0.00001701       0.00000395
I        0.38108707       0.29111470       4.49608067      -0.00002102      -0.00000711      -0.00000398
I        6.68855074       6.51602049       3.19773228       0.00000579       0.00000657      -0.00001601
I       13.95017877       6.49844295       3.12751581      -0.00000103      -0.00000563      -0.00000230
I        7.64264141       0.27350572       4.42581273       0.00000234       0.00001126       0.00001438
I       10.31430615       3.85257207       3.31691734      -0.00001993       0.00001696      -0.00001536
I        4.02589960      10.07931371       3.58636476       0.00001049       0.00000360       0.00000159
I        4.01691257       2.93691898       4.30657448       0.00002017       0.00000125       0.00001408
I       10.30533875      -3.28972961       4.03728563      -0.00002472      -0.00000948      -0.00002484
I       12.95089618       6.44218918      -1.62723957      -0.00000493      -0.00000710       0.00000447
I        6.61996381       0.29754343      -3.19972227       0.00000545      -0.00002593      -0.00002027
I        1.38030796       0.34735327       9.25083193       0.00000215      -0.00003010      -0.00000505
I        7.71133035       6.49198804      10.82329876      -0.00002096      -0.00001069       0.00002336
I        4.06375085       3.89743151       9.58928617       0.00001493      -0.00000473       0.00002593
I       10.35218368      -2.32934762       9.31984593      -0.00002484       0.00002608      -0.00000509
I       10.26745818       2.89208041      -1.96577916      -0.00001080       0.00000301      -0.00000204
I        3.97906853       9.11884472      -1.69624069      -0.00000570      -0.00000008       0.00000781
I        1.38314352       8.89895346       7.16451523      -0.00001208       0.00001163       0.00001715
I        7.67432005       4.12122187       6.90826793       0.00002827      -0.00000243       0.00000594
I       12.94814494      -2.10943328       0.45910403      -0.00001218       0.00000162      -0.00001798
I        6.65686193       2.66830331       0.71526434      -0.00000274       0.00000670      -0.00000880
I        1.31443977       2.68043449       0.76698654       0.00002005       0.00002444      -0.00002159
I        7.63648537      10.30311785       0.90532956       0.00002489       0.00000400      -0.00001487
I       13.01675559       4.10908299       6.85656162      -0.00003081      -0.00001161       0.00000025
I        6.69466164      -3.51362756       6.71824925       0.00000832       0.00001147       0.00002087
