768
Lattice="25.372311069888333 0.12811577384479955 -0.07871331758822524 -0.23132306924290266 25.17602739856273 -0.09533645963181216 -0.23946007793711616 0.14176957436104093 25.180189486626762" Properties=species:S:1:pos:R:3:forces:R:3 energy=-3350.7477527774777 stress="0.005140039715447742 -9.475828211988164e-05 0.001254547922091686 -9.475828211988164e-05 0.0020256352176772283 7.552353131661626e-05 0.001254547922091686 7.552353131661626e-05 0.0044749274536252754" free_energy=-3350.7477527774777 pbc="T T T"
I        5.21851735       2.93422232       3.97519645      -0.00000316      -0.00000868      -0.00000855
I        6.48897746      14.86391072      10.26138369       0.00000771       0.00000229      -0.00000224
I        5.43140743      12.04041669       6.52980987      -0.00000477      -0.00000576      -0.00000777
I        6.27609462       5.75775440       7.70675142      -0.00000090       0.00000974       0.00000077
I       24.07223296      15.65372259      10.16352852       0.00000040       0.00000634       0.00000179
I       13.00761749       2.27250383       3.99431642      -0.00000068       0.00000339      -0.00000048
I       11.66243797       5.77786669       6.68046313      -0.00000475      -0.00000290      -0.00001124
I        0.04507705      12.02030599       7.55606452      -0.00000104      -0.00000714       0.00000059
I        8.91924905      15.57249141      14.07563257       0.00000183       0.00000179      -0.00000419
I        2.69764771       8.56295246       7.82165822      -0.00000441       0.00000052       0.00000365
I        2.75169367       2.91700604       7.84795299       0.00000677      -0.00000768       0.00000282
I        8.95582731      14.88112245       6.38863739       0.00000044      -0.00000517      -0.00000415
H        3.27123777       5.73143038       5.54110674      -0.00001086       0.00000799      -0.00000844
H        7.50035888       5.73898640       3.42891255       0.00001184      -0.00000025       0.00001780
H       10.00785364      11.14543226       3.06813572       0.00000365       0.00000351       0.00000283
H        1.69959279       6.65277231      11.16833810       0.00000394       0.00000051      -0.00000146
H        3.59488553      12.94642340       9.37245203       0.00000173      -0.00001697       0.00001269
H        8.11241468       4.85178919       4.86402070       0.00000467      -0.00001664       0.00000988
H        8.12103600       6.68865715      11.20329520       0.00000436      -0.00001159       0.00000258
H        1.09744767       5.74240614       9.74359552       0.00000209       0.00000377       0.00000899
H        1.84265189       4.82358108       4.94369462      -0.00000542       0.00000595      -0.00000237
H        8.10253798       6.64937651       4.85362437       0.00000151       0.00002100       0.00001512
H       10.61005229      12.05576433       4.49287666       0.00000369       0.00000297       0.00000082
H        1.70945021       4.85518330      11.17871038       0.00000257       0.00000475       0.00000390
H        3.63218225       6.55173942       3.30032167      -0.00000632      -0.00000237      -0.00000514
H        8.06905864      12.92310122      10.92209762       0.00000600      -0.00000268      -0.00000735
H        8.37089307      12.88471797       4.85481377       0.00000326      -0.00000199      -0.00000141
H        1.78581034      12.85557000       4.64674174       0.00000699       0.00000613      -0.00000836
H        2.28500114       5.70359116       2.71959371       0.00000788      -0.00000559       0.00001193
H        9.42258217      12.09460992      11.51699291      -0.00000438      -0.00000918      -0.00000238
H        8.38077974      11.20664904       4.86412037      -0.00000155       0.00000238       0.00000079
H        3.13937104      12.02710394       5.24158228      -0.00000542       0.00000154      -0.00000158
H        3.63852371       4.87509891       3.31448594       0.00000237       0.00000079      -0.00000168
H        9.72965248       6.58806520       3.05769372       0.00000987       0.00001433      -0.00001997
H        7.78579818      12.03484031       3.51147653      -0.00000262      -0.00000302       0.00000726
H        1.79218318      11.17893047       4.66090597      -0.00000050       0.00000794       0.00000311
C        3.48000124      12.05052487       9.98955816       0.00004254       0.00004298      -0.00003169
C        8.22739564       5.74768032       4.24692465       0.00000761      -0.00000981      -0.00005377
C        8.73519688       5.79042164      11.09064694       0.00000485       0.00000306      -0.00000552
C        1.82445934       5.75108224      10.56162969      -0.00001264      -0.00001271      -0.00000316
Pb       5.85375521       8.89908717       7.11828545       0.00000792       0.00000148      -0.00000504
Pb       5.79594341      15.19309215       7.09445332       0.00000051       0.00000257       0.00000066
Pb      24.76530285      15.32461963      13.33047178      -0.00000077      -0.00000279       0.00000096
Pb      24.82516962      15.28918145       7.03540241      -0.00000196       0.00000046      -0.00000150
N        3.03268608       5.71233533       3.44215186      -0.00001142       0.00000938      -0.00000373
N        8.67487630      12.08584608      10.79445630      -0.00001683       0.00000411       0.00001309
N        8.51045039      12.04304976       4.25713515       0.00000546       0.00001585       0.00000026
N        2.39165829      12.01834516       4.51905264       0.00000358      -0.00000814      -0.00000499
I        6.53363926       9.27211315      10.28170165       0.00000215      -0.00000292       0.00000260
I        5.17381558       8.52616005       3.95484817      -0.00000145      -0.00000442       0.00000441
I        5.25950058       5.78126849      12.99520780       0.00000099       0.00000492      -0.00000419
I        6.44801692      12.01690499       1.24134811      -0.00000321      -0.00000154      -0.00000126
I        0.25050108       9.20455168       4.00634035       0.00000337      -0.00000261      -0.00000351
I       11.45707972       8.59354902      10.23021212      -0.00000425      -0.00000379       0.00000694
I       11.83432656      12.03700079       0.21506307       0.00000192       0.00000425       0.00000458
I       25.24546847       5.88927669      13.94275799      -0.00000340       0.00000046      -0.00000356
I        9.00987842       9.23518351       6.41492046      -0.00000805       0.00000051      -0.00000409
I        2.67260968      14.81371514       0.11326507       0.00000305       0.00000487      -0.00000160
I        2.60692822       9.23857753      12.72965001       0.00000128       0.00000485      -0.00000514
I        9.10057925       8.55956134       1.50692161      -0.00000331       0.00000340      -0.00000317
H        3.60487813      11.14883686       9.38284974      -0.00001160      -0.00001342      -0.00000809
H        9.86960357      11.17699173       9.30849793      -0.00000198       0.00000674       0.00000465
H        9.55431469       5.79896447      11.81640516       0.00000540       0.00000153       0.00000095
H        2.15302376      11.99923397       2.42010670       0.00000431      -0.00000496       0.00000797
H        1.83787337       6.62106876       4.92811581       0.00000186       0.00000471      -0.00000188
H        8.43626296      12.06666782       8.69550969       0.00000755      -0.00000340       0.00000547
H        9.99795180      12.94302063       3.05782304      -0.00000134      -0.00000131       0.00000124
H        3.58161171      12.90712134       3.01745754      -0.00000241      -0.00001194       0.00000489
H        4.20709053      12.05926856      10.80752092       0.00001297      -0.00001185       0.00001784
H        9.86490895      12.97447919       9.29283902      -0.00000208      -0.00000481       0.00000702
H        8.12570771       4.89117053      11.21895354       0.00000198       0.00000105       0.00000163
H        3.58643328      11.10963366       3.03304608      -0.00000066      -0.00000796      -0.00000158
H        1.38279932      12.03821936       9.82624017      -0.00001046       0.00000216      -0.00001250
H        9.73950925       4.90999518       3.06704741      -0.00000075      -0.00000866      -0.00001379
H        8.56822268       5.77103253       8.99484584       0.00000911      -0.00000205       0.00000606
H        3.33659653       4.91338829       9.38179482      -0.00000138       0.00000040      -0.00000960
H        1.96792825      12.88809870      11.16956104      -0.00000436       0.00000404      -0.00001114
H       10.32459542       5.75990238       4.41036928       0.00000057      -0.00000123      -0.00000255
H        9.92169523       4.94252948       9.58984048       0.00000067      -0.00000822       0.00000165
H        3.92165593       5.76328357      10.72513693      -0.00001187       0.00000629      -0.00001182
H        1.97785091      11.21002871      11.17885253       0.00000391       0.00003549      -0.00000199
H        8.07536309      11.24646525      10.93634372       0.00001178       0.00000952      -0.00000335
H        9.91540472       6.61916668       9.57559275      -0.00000327      -0.00000264      -0.00000081
H        3.32675936       6.59145751       9.37244627      -0.00000328      -0.00000429       0.00000232
C        2.45207969       5.72287456       4.81539284       0.00001753      -0.00000450       0.00000713
C        9.25544251      12.07522023       9.42119906      -0.00000114       0.00000327      -0.00001333
C        9.88299785      12.04709901       3.67488128      -0.00000344      -0.00001189      -0.00000511
C        2.97221014      12.00781384       3.14578807      -0.00000086       0.00001624       0.00000616
Pb       5.73605035      15.22852368      13.38949906       0.00000363      -0.00000152       0.00000229
Pb       5.79389897       8.93452771      13.41332875      -0.00000222      -0.00000910       0.00000227
Pb      24.88300762       8.99516311       7.05924199      -0.00000279       0.00000513       0.00000271
Pb      24.82311924       9.03061062      13.35429810      -0.00000642      -0.00000139       0.00000968
N        2.10748036      12.04643914      10.57186918      -0.00002818      -0.00004181       0.00004176
N        9.59995576       5.75168362       3.66469833      -0.00002351      -0.00000108       0.00004893
N        9.31587520       5.77978976       9.71743665      -0.00001283       0.00001505       0.00000219
N        3.19703594       5.75507596       9.97944534       0.00001839       0.00000360       0.00000877
I        5.09878368       3.00509398      16.56527830      -0.00000319       0.00000205       0.00001004
I        6.36927896      14.93482846      22.85147601      -0.00000105      -0.00000029      -0.00000274
I        5.31168605      12.11128210      19.11988488       0.00000102       0.00000298       0.00000435
I        6.15639713       5.82862564      20.29685490       0.00000493       0.00000145       0.00000294
I       23.95249606      15.72465511      22.75363396       0.00000487      -0.00000317       0.00000243
I       12.88786606       2.34337775      16.58441696       0.00000446      -0.00000058       0.00000070
I       11.54273837       5.84872648      19.27057497       0.00000009       0.00000192      -0.00000313
I       -0.07465229      12.09118027      20.14620052       0.00000437      -0.00000210       0.00000830
I        9.03899148      15.50163125       1.48553148      -0.00000158      -0.00000123       0.00000320
I        2.57792652       8.63382895      20.41172341      -0.00000032       0.00000033       0.00000350
I        2.63197164       2.98790198      20.43804813       0.00000798       0.00000154       0.00000231
I        8.83609513      14.95203494      18.97873947       0.00000283       0.00000773      -0.00000266
H        1.72287601       4.89452113      17.53379204      -0.00000538      -0.00000328      -0.00000034
H        7.38068975       5.80986880      16.01911467       0.00000743      -0.00000733       0.00000295
H        9.88809629      11.21625406      15.65824410      -0.00000331      -0.00000355      -0.00000337
H        1.58982373       4.92603724      23.76884749      -0.00000244      -0.00000224       0.00000017
H        3.48521706      11.21956645      21.97311621      -0.00000532       0.00003415       0.00001321
H        7.99282370       4.92261684      17.45415746       0.00000147       0.00000149      -0.00000492
H        9.43468830       5.86980489      24.40654067      -0.00000577       0.00000183      -0.00000949
H        1.57984386       6.72362511      23.75840767       0.00000805      -0.00000224      -0.00000152
H        1.71812337       6.69200791      17.51812219       0.00000180      -0.00000237       0.00000339
H        7.98293370       6.72020386      17.44383388      -0.00000200       0.00000841       0.00000273
H       10.49036689      12.12666478      17.08290338      -0.00000141      -0.00000041       0.00000943
H        0.97775509       5.81316379      22.33370175      -0.00000649       0.00000828       0.00000991
H        3.51242274       6.62257095      15.89032691       0.00000988       0.00000025      -0.00000106
H        7.94926616      12.99395155      23.51216402      -0.00000140      -0.00000633      -0.00000134
H        8.25124334      12.95565988      17.44490792      -0.00000157      -0.00001159      -0.00001536
H        1.67240847      11.24982533      17.25103375      -0.00001964      -0.00002108       0.00000542
H        2.16522661       5.77441657      15.30964534       0.00001019       0.00000307       0.00001553
H        9.30277451      12.16546796      24.10710025      -0.00000258      -0.00000048       0.00000513
H        8.26108131      11.27759057      17.45426309       0.00000731       0.00000635      -0.00001328
H        1.66606811      12.92646327      17.23683294       0.00002018      -0.00001886      -0.00000694
H        3.51874156       4.94593302      15.90456863       0.00001186      -0.00000103      -0.00000066
H        9.60995747       6.65896345      15.64780197       0.00000051      -0.00000403      -0.00000164
H        7.66607453      12.10575688      16.10161766      -0.00001021      -0.00000175      -0.00000901
H        3.01959088      12.09798348      17.83174364       0.00000995      -0.00000167       0.00001034
C        3.36039213      12.12132580      22.57973254      -0.00001003      -0.00004668       0.00000412
C        8.10776755       5.81853344      16.83708980      -0.00003265      -0.00000694       0.00000405
C        8.61554102       5.86124648      23.68081487       0.00001851      -0.00000238       0.00000087
C        1.70476915       5.82192075      23.15173250      -0.00000208       0.00000608       0.00000223
Pb       5.73404383       8.96995036      19.70835865       0.00000028       0.00000235       0.00000127
Pb       5.67620087      15.26396416      19.68454923      -0.00000212       0.00000134      -0.00000237
Pb      24.88502222      15.25371920       0.74037298       0.00000258       0.00000355       0.00000100
Pb      24.70541599      15.36004684      19.62551416       0.00000690       0.00000247       0.00000083
N        2.91291595       5.78318359      16.03219923      -0.00002296      -0.00000281      -0.00000715
N        8.55510578      12.15671151      23.38452629       0.00000863       0.00000280       0.00000444
N        8.39075537      12.11396920      16.84724742      -0.00004506       0.00000128       0.00005761
N        2.27190642      12.08922332      17.10918630      -0.00000773       0.00005092      -0.00001793
I        6.41396645       9.34290605      22.87178966      -0.00000202       0.00000502       0.00000768
I        5.05411689       8.59695593      16.54494275      -0.00000106      -0.00000011       0.00000082
I        5.37923355       5.71038720       0.40513532       0.00000186       0.00000234      -0.00000044
I        6.32828785      12.08777262      13.83148553       0.00000551       0.00000070       0.00000317
I        0.13070772       9.27546683      16.59644098       0.00000181       0.00000007      -0.00000348
I       11.33734518       8.66447046      22.82032172       0.00000256       0.00000156      -0.00000840
I       11.71464569      12.10787123      12.80516683       0.00000199       0.00000277      -0.00000334
I       25.36524331       5.81839124       1.35268972      -0.00000146       0.00000216       0.00000162
I        8.89016414       9.30608283      19.00501422      -0.00000777       0.00000016      -0.00000270
I        2.55287185      14.88452006      12.70335456      -0.00000531       0.00000438       0.00000166
I        2.72665923       9.16773025       0.13949797       0.00000836      -0.00000549       0.00000570
I        8.98086331       8.63040934      14.09698207      -0.00000198       0.00000662       0.00000197
H        4.08742916      12.13006825      23.39774312      -0.00000250      -0.00000286      -0.00000279
H        9.74995804      11.24794779      21.89861510      -0.00000200      -0.00000300      -0.00000737
H        8.00611097       4.96195362      23.80910872      -0.00000974      -0.00000305       0.00000138
H        3.46671038      11.18044329      15.62324567       0.00000023       0.00000024      -0.00000169
H        3.15147791       5.80238293      18.13115233      -0.00000806      -0.00000089      -0.00000633
H        8.31661505      12.13757823      21.28556300       0.00000258      -0.00000428       0.00000908
H        9.87822043      13.01384088      15.64782048       0.00000209      -0.00000735       0.00000849
H        2.03336303      12.07008891      15.01023036      -0.00002490       0.00000135      -0.00001785
H        3.47540638      13.01715409      21.96255269      -0.00000503       0.00003594      -0.00001601
H        9.74518637      13.04543431      21.88300311       0.00000245      -0.00000324      -0.00000410
H        8.00133317       6.75944081      23.79352646      -0.00000703       0.00000983       0.00000380
H        3.46196097      12.97793023      15.60763014      -0.00001478      -0.00001722       0.00000185
H        1.26319088      12.10920841      22.41628885       0.00000327       0.00000069      -0.00000335
H        9.61984105       4.98089569      15.65712655      -0.00001355       0.00000826       0.00000557
H        8.44849043       5.84196229      21.58501491      -0.00000575      -0.00001100       0.00000377
H        3.21694294       4.98430522      21.97189169      -0.00000485       0.00000036      -0.00000311
H        1.84832211      12.95914976      23.75957165      -0.00000272       0.00000798       0.00001037
H       10.20496958       5.83078775      17.00044055      -0.00000376      -0.00000591      -0.00000189
H        9.80200505       5.01346951      22.17992350       0.00000323      -0.00000565      -0.00000333
H        3.80196485       5.83422985      23.31523096      -0.00000294      -0.00000525      -0.00000982
H        1.85809128      11.28108008      23.76900245       0.00000270       0.00000104      -0.00001138
H        7.95560570      11.31731065      23.52635701       0.00000219       0.00000567       0.00000061
H        9.79566571       6.69010893      22.16575964       0.00000387       0.00000230      -0.00000388
H        3.20702223       6.66237267      21.96254046      -0.00000117       0.00000176      -0.00000420
C        2.33231655       5.79379880      17.40544287       0.00000948       0.00001051       0.00000007
C        9.13575043      12.14614589      22.01130187      -0.00000348       0.00000213      -0.00000260
C        9.76327737      12.11795948      16.26493963       0.00004819       0.00000808      -0.00003117
C        2.85251674      12.07864927      15.73594681       0.00003854       0.00000983       0.00002873
Pb       5.85580272      15.15766762       0.79940421       0.00000021      -0.00000517      -0.00000022
Pb       5.91361244       8.86364752       0.82322451       0.00000244      -0.00000003      -0.00000206
Pb      24.76327372       9.06604685      19.64936036      -0.00000402      -0.00000608      -0.00000244
Pb      24.94287093       8.95971063       0.76419751      -0.00000212       0.00000254      -0.00000671
N        1.98783202      12.11742651      23.16195826       0.00000996      -0.00003057      -0.00000106
N        9.48029849       5.82257034      16.25480036       0.00003528       0.00000207      -0.00001554
N        9.19616632       5.85070594      22.30758160      -0.00000782      -0.00000324       0.00000792
N        3.07734321       5.82598529      22.56954196       0.00000751      -0.00000576       0.00000163
I        5.10286012      15.52223401       3.92751957       0.00000294       0.00000020      -0.00000663
I        6.60465794       2.27593163      10.30904819      -0.00000053       0.00000028      -0.00000436
I        5.31576283      24.62841826       6.48214526       0.00000138      -0.00001114       0.00000124
I        6.16048287      18.34576734       7.65911460       0.00000210      -0.00000259       0.00000264
I       24.18785086       3.06571364      10.21120251       0.00000587      -0.00000391       0.00000581
I       12.89197392      14.86053562       3.94666404      -0.00000301       0.00000313      -0.00000468
I       11.54677824      18.36586868       6.63281124       0.00000341      -0.00000361       0.00000046
I       -0.07058200      24.60831503       7.50847569      -0.00000014      -0.00000485      -0.00000574
I        9.03492249       2.98452002      14.12328178      -0.00000033       0.00000046       0.00000040
I        2.58198616      21.15097030       7.77395710       0.00000282      -0.00000321       0.00000549
I        2.63604394      15.50505956       7.80022654      -0.00000034      -0.00000041       0.00000261
I        9.07147209       2.29316494       6.43629463       0.00000705       0.00000092       0.00000016
H        3.15551539      18.31949524       5.49335120       0.00001015       0.00000000       0.00000572
H        7.38473825      18.32697658       3.38132553       0.00000674      -0.00000386      -0.00000352
H        9.89219060      23.73338010       3.02051633       0.00000869      -0.00000197      -0.00000907
H        1.58404101      19.24077338      11.12076931      -0.00000754      -0.00000395      -0.00000164
H        3.48920755      23.73682326       9.33519692       0.00000886      -0.00000242       0.00000518
H        7.99687732      17.43973463       4.81637155      -0.00000473       0.00001189      -0.00000714
H        9.43873171      18.38692981      11.76878337       0.00000208       0.00000172       0.00000068
H        0.98177775      18.33041600       9.69607077       0.00001404       0.00000258       0.00000735
H        1.72688643      17.41169056       4.89596820       0.00000452       0.00000440       0.00000778
H        7.98696631      19.23732200       4.80604453       0.00000349       0.00000547      -0.00000355
H       10.49444365      24.64380080       4.44517879      -0.00000814      -0.00000983       0.00000217
H        1.59391043      17.44318512      11.13112644       0.00000525       0.00001240      -0.00000641
H        3.51651251      19.13967436       3.25252172      -0.00000346       0.00000641       0.00000145
H        7.95337025      25.51112920      10.87443554      -0.00000369       0.00001213       0.00000225
H        8.25531165      25.47278671       4.80715486      -0.00000386      -0.00000444      -0.00000729
H        3.02364542      24.61513646       5.19405465       0.00000699       0.00000142       0.00000436
H        2.16930479      18.29154136       2.67183277      -0.00000430       0.00000352      -0.00001017
H        9.30688763      24.68263604      11.46934472      -0.00000794       0.00000338       0.00000427
H        8.26515967      23.79471563       4.81651415      -0.00000993       0.00001211      -0.00000639
H        1.67645826      23.76699223       4.61333278       0.00000667       0.00000875       0.00000067
H        3.52279829      17.46303816       3.26678163      -0.00000417       0.00000479      -0.00000050
H        9.61400268      19.17609236       3.01001818      -0.00000632      -0.00001391       0.00001814
H        7.67015986      24.62287704       3.46386147       0.00000287       0.00000056       0.00000230
H        1.67015588      25.44362994       4.59908443       0.00000180       0.00000406       0.00000425
C        3.36441740      24.63849791       9.94194430      -0.00001065       0.00000017      -0.00001034
C        8.11181328      18.33565176       4.19930265      -0.00003074      -0.00000957       0.00002863
C        8.61959948      18.37838291      11.04304106       0.00001683       0.00000920      -0.00001213
C        1.70886051      18.33908950      10.51404172      -0.00000530      -0.00001134      -0.00000426
Pb       5.73810838      21.48708428       7.07062854      -0.00000218      -0.00000086      -0.00000726
Pb       5.91158377       2.60507019       7.14211342       0.00000057       0.00000351       0.00000446
Pb      24.88096249       2.73658973      13.37812835      -0.00000594       0.00000401       0.00000373
Pb      24.94082179       2.70114703       7.08309366      -0.00000328       0.00000261      -0.00000738
N        2.91698563      18.30030156       3.39439396       0.00001503      -0.00000371       0.00002253
N        8.55918842      24.67387399      10.74680122       0.00001555      -0.00001976      -0.00000911
N        8.39483309      24.63109484       4.20949914       0.00001989      -0.00001044       0.00001073
N        2.27597920      24.60637358       4.47147845      -0.00001441      -0.00000758      -0.00001379
I        6.41801472      21.86008586      10.23405259       0.00000214       0.00000027      -0.00000259
I        5.05820558      21.11404827       3.90720377      -0.00000084       0.00000299       0.00000047
I        5.14383157      18.36927566      12.94751460       0.00000346       0.00000565       0.00000477
I        6.33235951      24.60490794       1.19373701       0.00000156      -0.00000852       0.00000799
I        0.13477853      21.79262617       3.95869257       0.00000513       0.00000095      -0.00000674
I       11.34139882      21.18160668      10.18257283       0.00000108      -0.00000682      -0.00000262
I       11.71871547      24.62501640       0.16741145      -0.00000251      -0.00000636       0.00000026
I       25.12984249      18.47729596      13.89511355       0.00000060      -0.00000715       0.00000223
I        8.89422312      21.82320581       6.36725954      -0.00000420       0.00000005      -0.00000357
I        2.78827117       2.22563945       0.16095168      -0.00000459       0.00000022      -0.00000349
I        2.49127424      21.82663037      12.68199065      -0.00000209      -0.00000058       0.00000247
I        8.98492691      21.14757232       1.45924527       0.00000712      -0.00000210      -0.00000129
H        4.09149518      24.64712466      10.75991946       0.00000130       0.00000737      -0.00000075
H        9.75394155      23.76502614       9.26086030       0.00000235      -0.00000150       0.00000038
H        8.01014243      17.47910841      11.17133427      -0.00000506      -0.00000756      -0.00000471
H        3.47079970      23.69752011       2.98559681       0.00000182       0.00000423      -0.00000519
H        1.72220670      19.20917729       4.88029718       0.00000223      -0.00000140       0.00000029
H        8.32060316      24.65468996       8.64785033      -0.00000100       0.00000133       0.00000167
H        9.88231160      25.53096895       3.01008530      -0.00000448      -0.00002382       0.00000934
H        2.03749257      24.58718634       2.37251675      -0.00000165      -0.00000028      -0.00000472
H        3.47940266      25.53441135       9.32488017       0.00000032      -0.00000028       0.00000258
H        9.74923431      25.56251275       9.24519974       0.00000312       0.00000546      -0.00000343
H        8.00541269      19.27659498      11.15572882      -0.00000655       0.00000505       0.00000425
H        3.46609835      25.49500702       2.96993124      -0.00000025      -0.00000284      -0.00000119
H        1.85237929      25.47621228      11.12189963      -0.00000372       0.00000239       0.00000208
H        9.62389641      17.49802290       3.01934912      -0.00000619       0.00001222       0.00000605
H        8.45259029      18.35906465       8.94723975      -0.00000834      -0.00000253      -0.00000309
H        3.22091170      17.50141786       9.33407296      -0.00000019       0.00001598       0.00001062
H        1.86219445      23.79814050      11.13123979       0.00000025       0.00000812       0.00000054
H       10.20901375      18.34792387       4.36266184       0.00000303      -0.00000516       0.00000017
H        9.80608622      17.53056671       9.54218569      -0.00000503      -0.00000580       0.00000138
H        3.80606399      18.35130788      10.67738031      -0.00000596      -0.00000097      -0.00000849
H        1.26721397      24.62632700       9.77859628      -0.00000559       0.00000362      -0.00000289
H        7.95967641      23.83449197      10.88868371       0.00000208      -0.00000407      -0.00001080
H        9.79976336      19.20720599       9.52799650       0.00000138       0.00000945      -0.00001120
H        3.21105930      19.17948758       9.32474081      -0.00000187      -0.00000556       0.00000399
C        2.33636599      18.31094355       4.76762910      -0.00001294      -0.00000266      -0.00001522
C        9.13977225      24.66324991       9.37355104      -0.00000764       0.00000257       0.00000528
C        9.76736429      24.63508839       3.62720562      -0.00001022       0.00004073      -0.00000133
C        2.85662737      24.59574606       3.09825569      -0.00000086       0.00000571       0.00000337