768
Lattice="37.270736588784004 -0.2608827397892206 -0.09657957341062719 -0.04608722211304349 22.618217900570055 0.08262626718457151 -0.042913875137613626 -0.07760667127455552 18.780786146839297" Properties=species:S:1:pos:R:3:forces:R:3 energy=-3355.0693831618746 stress="0.0010158316819378651 -0.00030191165853294126 -0.00012255350236265017 -0.00030191165853294126 0.001987257039421574 -1.8693095541504404e-05 -0.00012255350236265017 -1.8693095541504404e-05 0.00011555455441607414" free_energy=-3355.0693831618746 pbc="T T T"
I       19.68313220       1.97731021       5.43947309       0.00000424      -0.00000113      -0.00000574
I       20.32454587       5.90002157       3.10119740      -0.00000418      -0.00000466      -0.00000015
I       10.98854267       7.70405321       5.48084311       0.00000271      -0.00000279      -0.00000810
I       10.38372821       0.30368080       3.10805919      -0.00000005       0.00000919       0.00001035
I       17.97679195      21.08299989       3.15390779       0.00000253      -0.00000449       0.00000162
I        3.34938158       9.54295542       5.51763461       0.00000605      -0.00000053       0.00000304
I       12.68775781       4.18609754       3.12791498       0.00000078       0.00000048       0.00000105
I        8.68454581       3.82163664       5.46098869      -0.00001135      -0.00000067       0.00000047
I        4.98559376       1.95134606       3.12976852      -0.00000368      -0.00000118       0.00000611
I       16.38667497       6.05641124       5.45913438       0.00000293      -0.00000089       0.00000295
I        7.09319841       7.55946801       3.13809941      -0.00000731      -0.00000242       0.00000489
I       14.27911578       0.44827317       5.45076151       0.00000013      -0.00000166       0.00000329
H        6.17908274      22.03421092       5.52430527       0.00001023       0.00000169       0.00000007
H       13.91298463       7.62510989       4.02149906      -0.00000417       0.00000266      -0.00000882
H        4.60147561       6.06137012       6.38448777      -0.00000589      -0.00000131       0.00000665
H       16.75529364       1.94591175       3.99127239      -0.00000518      -0.00000474       0.00000805
H        7.39486815      22.98838516       6.43665704       0.00000252       0.00000548       0.00000558
H       13.93140619       7.63764453       2.23487610      -0.00000615       0.00000008      -0.00000327
H        5.83135831       5.09780796       5.50127957      -0.00001244       0.00001390      -0.00000100
H       15.54094134       2.90994886       3.08772763      -0.00001114       0.00000320      -0.00000751
H        7.41323111      23.00088944       4.65003419      -0.00000053       0.00000801      -0.00000486
H       15.14709586       8.59188556       3.14728266       0.00000609      -0.00000354       0.00000284
H        4.61708571       6.06180127       4.59758193       0.00000287       0.00001353      -0.00002125
H       16.77076087       1.94645018       2.20436426       0.00000100       0.00000272       0.00000848
H        9.14227522      10.19174420       5.50854069       0.00002626       0.00001553       0.00000923
H       13.37226908      10.02857616       2.31178972       0.00000705      -0.00000108      -0.00000334
H        2.88997063       4.57111209       5.47649083       0.00001347      -0.00000990       0.00000051
H       17.31800244       4.33517271       3.93082948       0.00000313      -0.00000805      -0.00000739
H        9.11923293      21.50083671       5.54990774       0.00000595       0.00001046      -0.00000428
H       13.34929566      21.33765720       2.35308166       0.00000579       0.00000371       0.00000524
H        4.04171666       3.67062093       6.31161564       0.00001178      -0.00000719       0.00001142
H       17.33053142       4.33717744       2.27731359      -0.00000749       0.00000635      -0.00000469
H        7.96887288      20.60772970       4.70595156       0.00000586       0.00000062      -0.00001547
H       13.33423705      21.32731507       4.00690162      -0.00000371      -0.00000001      -0.00000053
H        4.05432733       3.67256907       4.65810093       0.00000636      -0.00000407      -0.00000979
H       18.48232615       3.43666666       3.11234589       0.00000746       0.00000057       0.00000168
C        7.21319901      22.39344494       5.53714088      -0.00001049      -0.00001353      -0.00000121
C       14.11300437       8.23258255       3.13440823      -0.00000151      -0.00000590       0.00000651
C        4.79830753       5.46008158       5.49257726       0.00002568      -0.00001200       0.00002201
C       16.57399493       2.54768348       3.09632711       0.00000885      -0.00001884      -0.00001646
Pb       2.34906784       0.24598176       3.13415063       0.00000324       0.00000356      -0.00000371
Pb      19.02320716       7.76177188       5.45478386      -0.00000537       0.00000410      -0.00000408
Pb       9.71962626       5.83375725       3.12382629      -0.00000685      -0.00000102      -0.00000171
Pb      11.65267696       2.17396884       5.46507350       0.00000044      -0.00000392      -0.00000308
N        8.12690106      21.22126419       5.53805346       0.00000087      -0.00000282       0.00000488
N       13.19922619       9.40470383       3.13348455       0.00000201      -0.00000020       0.00000501
N        3.88196986       4.29034286       5.48451314      -0.00003352       0.00001064      -0.00001407
N       17.49032512       3.71742842       3.10438882      -0.00001361       0.00000908       0.00001646
I       19.67241381       1.95791097      10.13467003      -0.00000387      -0.00000078       0.00000107
I       20.31378413       5.88059876       7.79640264       0.00000502      -0.00000507      -0.00000433
I       10.97783270       7.68464251      10.17601927       0.00000430       0.00000179       0.00000849
I       10.37299998       0.28428437       7.80325715       0.00000325       0.00000433      -0.00000381
I       17.96605646      21.06359113       7.84910201       0.00000236      -0.00000749       0.00000197
I        3.33866975       9.52355640      10.21282344       0.00000182       0.00000069       0.00000538
I       12.67701208       4.16669346       7.82309412       0.00000086       0.00000419       0.00000188
I        8.67380026       3.80226353      10.15620705      -0.00000392      -0.00000630      -0.00000550
I        4.97487851       1.93195473       7.82497226      -0.00000071      -0.00000260      -0.00000186
I       16.37590566       6.03699776      10.15430975      -0.00000255       0.00000036      -0.00000438
I        7.08244796       7.54006301       7.83329902      -0.00000982      -0.00000341      -0.00000538
I       14.26835520       0.42888684      10.14595294       0.00000011       0.00000029       0.00000281
H        7.44860983       0.36330007       9.26259075      -0.00000637      -0.00000331       0.00000376
H       13.90230589       7.60571052       8.71661031      -0.00000968      -0.00000336       0.00000369
H        4.60645466       6.04241945       9.29285860      -0.00000488       0.00000293       0.00000200
H       16.74456409       1.92645471       8.68644898      -0.00000166       0.00000641      -0.00000106
H        6.21444170      -0.60340147      10.13681082       0.00000895       0.00000193       0.00000337
H       13.92063748       7.61828709       6.92998677      -0.00000691      -0.00000116       0.00000413
H        4.59062011       6.04199760      11.07976403       0.00000685       0.00000225      -0.00000089
H       15.53018586       2.89050731       7.78295472      -0.00001060      -0.00000322      -0.00000543
H        7.43020836       0.35074780      11.04921325      -0.00000021       0.00000293      -0.00000172
H       15.13635720       8.57252601       7.84235621       0.00000914      -0.00000278       0.00000115
H        5.82062956       5.07845197      10.19671090       0.00000735       0.00000299      -0.00000564
H       16.75998432       1.92703067       6.89953981       0.00000993       0.00000766       0.00001326
H        7.96620130       9.26889523      11.01362804       0.00000555       0.00000620      -0.00001166
H       12.19616606       9.10566006       7.81681633       0.00000050       0.00000832      -0.00000066
H        4.04368919       3.65319568       9.35330602       0.00000384       0.00000169       0.00000322
H       17.31975295       4.31775687       6.97252076       0.00000067       0.00000210      -0.00000306
H        7.98922056      -2.04019988      10.97229004       0.00000416       0.00000573       0.00000122
H       13.33861646      21.31826324       7.04827895      -0.00000233       0.00000764      -0.00000054
H        2.87925374       4.55170673      10.17161224      -0.00001071      -0.00000144       0.00000249
H       18.47156953       3.41723717       7.80751216      -0.00000936       0.00000623       0.00000031
H        9.15459126      -1.13677424      10.16243367      -0.00000959      -0.00000610       0.00001094
H       13.32345670      21.30791043       8.70209791      -0.00000027      -0.00000468      -0.00000041
H        4.03094680       3.65122066      11.00681944       0.00000058      -0.00000115      -0.00000018
H       17.30725954       4.31572475       8.62603569      -0.00000526      -0.00000030      -0.00000087
C        7.24855772      -0.24416818      10.14967710       0.00000158      -0.00000862       0.00000345
C       14.10227080       8.21320698       7.82952394       0.00000348      -0.00001146       0.00000224
C        4.78757454       5.44070806      10.18788107      -0.00000337       0.00000576      -0.00000074
C       16.56324083       2.52824483       7.79152067       0.00001158      -0.00000481      -0.00000810
Pb       2.33834721       0.22658790       7.82934968       0.00000564       0.00000464      -0.00000104
Pb      19.01243664       7.74236125      10.14995992       0.00000137       0.00000319       0.00000587
Pb       9.70887781       5.81435351       7.81901728      -0.00000463      -0.00000111       0.00000251
Pb      11.64192440       2.15458743      10.16026985       0.00000744      -0.00000367       0.00000263
N        8.16225967      -1.41634929      10.15057804       0.00001191       0.00000926       0.00000527
N       13.18847496       9.38531380       7.82867001       0.00000565       0.00000945      -0.00000891
N        3.87125636       4.27095427      10.17971577       0.00001006      -0.00000962      -0.00001264
N       17.47956631       3.69799427       7.79958304       0.00000391      -0.00000159      -0.00000134
I       19.66170015       1.93852557      14.82986518       0.00000200       0.00000291      -0.00001121
I       20.30304103       5.86118670      12.49158119      -0.00000179       0.00000441      -0.00000317
I       10.96711318       7.66525394      14.87124384      -0.00001122      -0.00000410       0.00000593
I       10.36224612       0.26489711      12.49845130      -0.00000533       0.00000238      -0.00000208
I       17.95533401      21.04420584      12.54430052      -0.00000019      -0.00000529       0.00000083
I        3.32795105       9.50416331      14.90803303       0.00000654      -0.00000416      -0.00000015
I       12.66630760       4.14728110      12.51830073      -0.00000291       0.00000262      -0.00000215
I        8.66308023       3.78284818      14.85137843       0.00000010      -0.00000150       0.00000591
I        4.96417708       1.91253435      12.52014441      -0.00000677       0.00000526       0.00000230
I       16.36518080       6.01760428      14.84950165       0.00000710       0.00000137      -0.00000195
I        7.07175127       7.52066919      12.52852112      -0.00000586       0.00000278      -0.00000131
I       14.25763574       0.40945536      14.84116356      -0.00000126       0.00000527      -0.00000475
H        7.39177175      22.96213161      14.04047522      -0.00000421      -0.00000634       0.00000306
H       15.12563565       8.55308747      12.53769521       0.00001273      -0.00000186       0.00000303
H        4.57991216       6.02257204      15.77492333       0.00000574      -0.00000593      -0.00001239
H       16.73389540       1.90705030      13.38167506      -0.00000787      -0.00001157       0.00001300
H        6.15763020      21.99544023      14.91474205      -0.00000485      -0.00000687      -0.00000268
H       13.89150045       7.58630393      13.41186835      -0.00000744       0.00000175       0.00000143
H        5.80990389       5.05905349      14.89181662       0.00000332      -0.00000026      -0.00000222
H       15.51947055       2.87101439      12.47814884      -0.00001958       0.00000339      -0.00000469
H        7.37343422      22.94958643      15.82709787      -0.00000138       0.00000445       0.00000529
H       13.90997093       7.59885783      11.62524624      -0.00001317      -0.00000098      -0.00000729
H        4.59568130       6.02301343      13.98801770       0.00000348      -0.00000773       0.00000222
H       16.74932137       1.90757342      11.59476747       0.00000365      -0.00000033       0.00000001
H        7.95542097       9.24949901      15.70884224      -0.00000017      -0.00000558       0.00000554
H       12.18545585       9.08627320      12.51192660      -0.00000500       0.00000043       0.00000192
H        2.86853342       4.53226675      14.86677090       0.00001232      -0.00000404       0.00001075
H       17.29648582       4.29633670      13.32120315      -0.00000650       0.00000031       0.00000938
H        9.09777730      21.46205203      14.94029312      -0.00000152       0.00000084       0.00000381
H       13.32779938      21.29890984      11.74347001       0.00000909       0.00000954      -0.00001492
H        4.02023633       3.63180830      15.70199482       0.00000321       0.00000286      -0.00000287
H       17.30896575       4.29833815      11.66768855      -0.00000466       0.00001528      -0.00001444
H        7.94740629      20.56896647      14.09633278      -0.00000260      -0.00000414      -0.00001081
H       13.31271922      21.28852165      13.39728896       0.00000568       0.00000287       0.00002371
H        4.03298132       3.63375913      14.04847949       0.00000152       0.00000660       0.00001095
H       18.46082789       3.39789001      12.50268678       0.00001877      -0.00001170       0.00000115
C        7.19174818      22.35466753      14.92757097       0.00000734       0.00000938      -0.00000595
C       14.09154428       8.19378592      12.52478982       0.00000460      -0.00000880      -0.00000394
C        4.77684319       5.42129432      14.88302677      -0.00001853       0.00000542       0.00001380
C       16.55254331       2.50880434      12.48672897      -0.00000811      -0.00001565      -0.00000881
Pb       2.32763905       0.20718058      12.52453969       0.00000873       0.00000000      -0.00000128
Pb      19.00171757       7.72295844      14.84515921       0.00000083       0.00000483       0.00000461
Pb       9.69818160       5.79496835      12.51423032      -0.00000577      -0.00000211      -0.00000130
Pb      11.63121248       2.13516721      14.85546542       0.00000084       0.00000125      -0.00000218
N        8.10544434      21.18248237      14.92844599       0.00001822      -0.00000554      -0.00000334
N       13.17776882       9.36590860      12.52385473      -0.00000466       0.00001032      -0.00001182
N        3.86054048       4.25152751      14.87488092      -0.00000224       0.00001619      -0.00001902
N       17.46881118       3.67859733      12.49476057       0.00001334       0.00001449       0.00001350
I       19.69385264       1.99671726       0.74426088       0.00000634       0.00000426       0.00000532
I       20.29230982       5.84178781      17.18677461      -0.00000095      -0.00000160      -0.00000619
I       10.99929613       7.72344083       0.78563920      -0.00000173      -0.00000317       0.00000144
I       10.35153725       0.24549888      17.19366553       0.00000209      -0.00000488      -0.00000274
I       17.94459691      21.02479199      17.23950618       0.00000597      -0.00000096      -0.00000288
I        3.36011432       9.56235232       0.82244370       0.00000068       0.00000275      -0.00000009
I       12.65557794       4.12787535      17.21349093      -0.00000494       0.00000676       0.00000218
I        8.69526660       3.84104623       0.76580607       0.00000319       0.00000071      -0.00000671
I        4.95341152       1.89315302      17.21537745       0.00000209      -0.00000150      -0.00000650
I       16.39739277       6.07581539       0.76394307      -0.00000273      -0.00000756      -0.00000345
I        7.06100050       7.50123221      17.22370190      -0.00000781       0.00000172      -0.00000217
I       14.28984394       0.46767850       0.75558459      -0.00000390       0.00000197       0.00000336
H        6.23589849      -0.56461069       0.74651474       0.00000336       0.00000017       0.00000058
H       13.88080532       7.56685568      18.10704322      -0.00000149       0.00000121      -0.00000179
H        5.84207228       5.11725530       0.80627788       0.00000794      -0.00000559      -0.00000456
H       15.50872849       2.85162004      17.17318883       0.00000814      -0.00000618       0.00000237
H        7.45169872       0.38957404       1.65883659       0.00000028      -0.00000168       0.00000056
H       13.89919074       7.57944876      16.32042051      -0.00000287      -0.00000660      -0.00000464
H        4.62786202       6.08125977      -0.09748892      -0.00000048      -0.00000441      -0.00000690
H       16.73863925       1.88822146      16.28984270       0.00000169       0.00000065       0.00001136
H        7.47001432       0.40208095      -0.12778678       0.00000139       0.00000062       0.00000287
H       15.11492380       8.53362872      17.23283406       0.00000043      -0.00000593       0.00000054
H        4.61209899       6.08076681       1.68941559       0.00000058       0.00000650       0.00000880
H       16.72309486       1.88761555      18.07675062      -0.00000002      -0.00000199       0.00000626
H        8.00263098       9.31801137      -0.03058699       0.00000278      -0.00000466       0.00000285
H       13.34010197       9.97037732      16.39740842       0.00000309       0.00000285      -0.00001060
H        4.06511672       3.69201660      -0.03709579       0.00000292      -0.00000431      -0.00000682
H       18.45008516       3.37850075      17.19791082       0.00000682      -0.00000830       0.00000487
H        8.01070737      -2.00138620       1.58193084      -0.00000107      -0.00000463       0.00000048
H       13.31710956      21.27946803      16.43868620      -0.00000266      -0.00000045       0.00000524
H        2.90069446       4.59051597       0.78124342      -0.00000654      -0.00000455       0.00000263
H       17.28570882       4.27690162      18.01642765       0.00000123      -0.00000091      -0.00001035
H        9.17605371      -1.09795505       0.77204708      -0.00000496      -0.00000174       0.00000111
H       13.30201885      21.26912078      18.09250685       0.00000414      -0.00000105      -0.00000123
H        4.05239657       3.69001142       1.61641753       0.00000213      -0.00000066       0.00000321
H       17.29825287       4.27899011      16.36291186       0.00000699      -0.00000603      -0.00000160
C        7.27001157      -0.20536716       0.75932442      -0.00000822      -0.00000180      -0.00000205
C       14.08082298       8.17435211      17.21996850       0.00000046      -0.00000451       0.00000792
C        4.80901702       5.47951173       0.79750180      -0.00000188       0.00001225      -0.00000810
C       16.54180191       2.48941038      17.18181959      -0.00000894       0.00001891      -0.00000327
Pb       2.31689170       0.18777886      17.21974797       0.00000001       0.00000761      -0.00000309
Pb      19.03392425       7.78117207       0.75957298      -0.00000471       0.00000192      -0.00000124
Pb       9.68744094       5.77553997      17.20941348       0.00000065       0.00000565       0.00000399
Pb      11.66341335       2.19337858       0.76989036      -0.00000423      -0.00000055      -0.00000633
N        8.18372453      -1.37753926       0.76021240       0.00001419       0.00000270      -0.00000215
N       13.16707451       9.34649593      17.21909975       0.00000057       0.00000252       0.00001116
N        3.89269646       4.30976031       0.78932632       0.00000789      -0.00000560      -0.00000161
N       17.45806782       3.65920619      17.18995906      -0.00001310       0.00000192       0.00000521
I       19.66012785      13.28643536       5.48077412      -0.00000486       0.00000141       0.00000448
I       20.30145889      17.20908670       3.14248437       0.00000590       0.00000165      -0.00000311
I       10.96551715      19.01317579       5.52215818      -0.00000422      -0.00000634       0.00000471
I       10.36066261      11.61281803       3.14938013       0.00000270      -0.00000524       0.00000037
I       17.99986628       9.77390313       3.11261940       0.00000310       0.00000425      -0.00000666
I        3.32633049      20.85207264       5.55893864       0.00000815      -0.00000402       0.00000227
I       12.66471761      15.49520199       3.16923848      -0.00000484       0.00000277      -0.00000363
I        8.66148032      15.13077606       5.50231125      -0.00000070      -0.00000090      -0.00000462
I        4.96256518      13.26044478       3.17106863       0.00000630       0.00000633       0.00000289
I       16.36362702      17.36550352       5.50040099       0.00000191       0.00000014       0.00000648
I        7.07015299      18.86857732       3.17942173      -0.00000711       0.00000307       0.00000130
I       14.25602992      11.75737967       5.49209489      -0.00000843       0.00000160       0.00000058
H        6.20212148      10.72509264       5.48297273      -0.00000986      -0.00000660       0.00000293
H       13.88983341      18.93412791       4.06276257       0.00000704       0.00000711       0.00000054
H        4.57839794      17.37047474       6.42585789       0.00000346      -0.00000151       0.00000036
H       16.74761030      13.25551372       2.24569051       0.00000597       0.00000000       0.00000608
H        7.41790005      11.67927318       6.39532658      -0.00000033       0.00000264       0.00000158
H       13.90830991      18.94671672       2.27614149      -0.00000081       0.00000091       0.00000650
H        5.80831709      16.40702167       5.54258074      -0.00000312      -0.00000387       0.00000665
H       16.73237655      13.25494432       4.03260103      -0.00000570       0.00000470      -0.00000691
H        7.43625955      11.69178639       4.60870348      -0.00000569      -0.00001303       0.00001055
H       15.12404196      19.90084216       3.18861305       0.00001595       0.00000335      -0.00000250
H        4.59398073      17.37099939       4.63895193       0.00000317      -0.00000591      -0.00000453
H       15.51787659      14.21895930       3.12922687      -0.00000720       0.00000199      -0.00000716
H        7.95386257      20.59742185       6.35977158      -0.00000213      -0.00000236      -0.00000523
H       12.18389733      20.43423118       3.16289160      -0.00000968      -0.00000352      -0.00000593
H        2.86695425      15.88017845       5.51780182      -0.00002021       0.00000560       0.00000136
H       18.45924894      14.74576902       3.15346360       0.00002053      -0.00000656       0.00001036
H        7.99190599       9.29861887       4.66461946       0.00000755       0.00000895       0.00000359
H       13.35718167      10.01822347       3.96560962       0.00000590       0.00000215      -0.00000959
H        4.01874469      14.97971135       6.35288624      -0.00000309       0.00001076       0.00000244
H       17.29500728      15.64422259       3.97212573      -0.00000455      -0.00000329      -0.00000769
H        7.97692960       9.28832646       6.31844078      -0.00000179       0.00000356      -0.00000874
H       12.20691380       9.12506464       3.12157286       0.00000042       0.00000948       0.00000372
H        4.03134667      14.98172063       4.69937159      -0.00000537       0.00000216       0.00000311
H       17.30732069      15.64626203       2.31860839       0.00000590      -0.00000734       0.00001366
C        7.23623394      11.08433532       5.49580800       0.00002473       0.00001193      -0.00000190
C       14.08992560      19.54161389       3.17569746      -0.00000731      -0.00000896      -0.00000883
C        4.77524805      16.76924193       5.53391360      -0.00001594       0.00000565       0.00000168
C       16.55094253      13.85672577       3.13768918       0.00001181      -0.00000684      -0.00000283
Pb       2.32603840      11.55508359       3.17547216      -0.00000332       0.00000652      -0.00000724
Pb      19.00015002      19.07086908       5.49607107      -0.00000766       0.00000572       0.00000077
Pb       9.69658567      17.14288103       3.16513938      -0.00000365      -0.00000712       0.00000225
Pb      11.62960943      13.48309226       5.50640311      -0.00000032      -0.00000041      -0.00000500
N        8.14994647       9.91216238       5.49671396      -0.00003424      -0.00002468      -0.00000470
N       13.17622992      20.71379931       3.17478293       0.00000966       0.00000963       0.00000651
N        3.85896665      15.59945835       5.52580613       0.00002559      -0.00001874      -0.00000229
N       17.46723798      15.02649909       3.14565359      -0.00002797       0.00001557      -0.00000057
I       19.64938048      13.26703522      10.17597072      -0.00000230      -0.00000278      -0.00000017
I       20.29073497      17.18970215       7.83769153       0.00000437      -0.00000140      -0.00000277
I       10.95477661      18.99376502      10.21735318      -0.00000574      -0.00000128      -0.00000788
I       10.34991313      11.59342185       7.84458790       0.00000692       0.00000443      -0.00000527
I       17.98912102       9.75451268       7.80780482       0.00000457      -0.00000501      -0.00000302
I        3.31561215      20.83266361      10.25412330       0.00000887      -0.00000164       0.00000406
I       12.65398570      15.47579829       7.86442288      -0.00000443       0.00000599       0.00000097
I        8.65075344      15.11137280      10.19750943      -0.00000062       0.00000172       0.00000060
I        4.95182816      13.24106284       7.86628869       0.00001104      -0.00000021      -0.00000061
I       16.35288141      17.34605940      10.19563523       0.00000390       0.00001064      -0.00000143
I        7.05941213      18.84915620       7.87461646      -0.00000630       0.00000483      -0.00000061
I       14.24530334      11.73798735      10.18727359      -0.00000029      -0.00000079       0.00000652
H        7.42553892      11.67240542       9.30395975      -0.00000181      -0.00000399      -0.00000136
H       13.89766998      18.92732331       6.97136826      -0.00000457      -0.00000227       0.00000082
H        5.79759568      16.38757148      10.23777867      -0.00000130       0.00000805      -0.00000313
H       16.72156016      13.23555303       8.72773805      -0.00000110       0.00001290      -0.00000526
H        6.19140450      10.70570804      10.17822947      -0.00000596      -0.00001111       0.00000118
H       15.11334202      19.88148344       7.88388201      -0.00000117      -0.00000585      -0.00000479
H        4.58329694      17.35155964       9.33411051       0.00000020       0.00000212      -0.00000299
H       15.50715855      14.19956174       7.82422878       0.00000036       0.00000285      -0.00000787
H        7.40721597      11.65984780      11.09058283      -0.00000647       0.00000339      -0.00000663
H       13.87912116      18.91474737       8.75798945      -0.00000448       0.00000252      -0.00000263
H        4.56771176      17.35110353      11.12101718      -0.00000403      -0.00000495       0.00000721
H       16.73699146      13.23611220       6.94083068       0.00000045      -0.00000674      -0.00001718
H        8.00423271      -2.02987425       9.31846917       0.00000608      -0.00000711       0.00000091
H       12.17318662      20.41480647       7.85800608       0.00000400       0.00000501       0.00000703
H        4.02055656      14.96232769       9.39459667       0.00000393      -0.00001133      -0.00000431
H       18.44852961      14.72637665       7.84875842      -0.00000984      -0.00000763       0.00000741
H        9.13155193      10.17232005      10.20374193       0.00000587       0.00000511      -0.00000004
H       13.36146370      10.00919647       7.00697177       0.00000526      -0.00000487       0.00000006
H        2.85621542      15.86083433      10.21305039      -0.00000208      -0.00000980      -0.00000771
H       17.28421517      15.62482266       8.66731958      -0.00001161       0.00000174      -0.00000117
H        7.98116509       9.27923071       9.35980638       0.00000392      -0.00000399      -0.00001380
H       13.34647014       9.99882757       8.66079178       0.00000679       0.00000188       0.00000747
H        4.00800038      14.96033817      11.04811237      -0.00000029      -0.00000067      -0.00000647
H       17.29667041      15.62686920       7.01380207       0.00000618       0.00000654       0.00000482
C        7.22552251      11.06493533      10.19105285       0.00001552       0.00000803       0.00000546
C       14.07923387      19.52223111       7.87092745       0.00000458       0.00000352       0.00000509
C        4.76454001      16.74983013      10.22909557      -0.00000128       0.00000063       0.00000260
C       16.54022435      13.83732983       7.83280289       0.00000798      -0.00000894       0.00003126