96
Lattice="19.328320595951944 0.2464151382718663 -0.0021645811543939187 -0.014900679630197861 10.865611199714035 -0.04740478381336753 -0.020119786598321143 -0.0012485915456665342 9.44233765102049" Properties=species:S:1:pos:R:3:forces:R:3 energy=-419.33510742716794 stress="0.002337065046329055 0.0003101059177636524 -5.18965336075986e-05 0.0003101059177636524 -1.4063471800109286e-05 -0.0002278604736539046 -5.18965336075986e-05 -0.0002278604736539046 -0.00016354182372869364" free_energy=-419.33510742716794 pbc="T T T"
I       17.01733975       4.87691230       2.52933346      -0.00000029      -0.00001034       0.00000263
I       17.63186064       8.55168232       0.14481935      -0.00000909      -0.00000518      -0.00000795
I        7.96350782      10.18167557       2.50638958       0.00001178      -0.00000117      -0.00000452
I        7.35740326       3.00047655       0.17003997       0.00000166      -0.00000717      -0.00001255
I       15.28648636       1.48240192       0.18460274      -0.00001703      -0.00000162      -0.00001363
I        0.03440555      11.69975057       2.49173293      -0.00000909      -0.00000644      -0.00000174
I        9.70261684       6.80886808       0.17122162       0.00000977      -0.00000934       0.00000794
I        5.61825984       6.37331739       2.50515791       0.00000095       0.00000662      -0.00000804
I        1.65670301       4.43693568       0.16173617       0.00000603      -0.00000371      -0.00001073
I       13.66419685       8.74515544       2.51460322       0.00000939      -0.00000967       0.00000552
I        3.97333370       9.95113298       0.13329852       0.00000501      -0.00000346       0.00000211
I       11.34758201       3.23109232       2.54303863       0.00000288      -0.00000886       0.00000644
H        3.09360006       2.16864443       2.52604560      -0.00002326      -0.00000609       0.00000868
H       11.03644532      10.01663772      -0.74888552       0.00000931       0.00001930       0.00003647
H        1.38584121       8.51534930       1.61594650      -0.00000488       0.00000526      -0.00000971
H       12.74462200       5.66510523       0.16194472       0.00003939      -0.00001766       0.00001613
H        4.28440042       3.16548121       3.42522005       0.00000357      -0.00000251      -0.00001609
H       12.22732162      11.01340907       0.15026072       0.00002764       0.00003197      -0.00000075
H        1.38463382       8.52345047       3.40225074       0.00001754       0.00000036       0.00002270
H       13.93605846       4.65885815      -0.72610025      -0.00000574      -0.00002513      -0.00001927
H        4.29594021       3.16245293       1.63869171      -0.00001351       0.00000802       0.00000149
H       11.02498916      10.01961770       1.03764412       0.00001018       0.00002208      -0.00003918
H        2.57624716       7.51713349       2.51451369      -0.00000704      -0.00000020      -0.00000243
H       13.93516512       4.66677230       1.06020705       0.00000722      -0.00000573       0.00000748
H        4.91783713       0.79132981       1.71133689       0.00001573       0.00001349       0.00000298
H        9.27108701      11.46499819       0.12852047       0.00002367       0.00001472       0.00000346
H        0.74765666       6.15361053       3.34665413       0.00002490      -0.00000703       0.00001768
H       14.57254198       7.03445909       0.98583939      -0.00000714      -0.00000732      -0.00000024
H        4.90612077       0.79261803       3.36702365      -0.00001842       0.00000130       0.00001375
H       10.41481758      12.38953347      -0.69058926       0.00000722      -0.00002665      -0.00003912
H        0.74851943       6.14764541       1.69045299      -0.00001323       0.00000733       0.00001280
H       14.57306540       7.02868924      -0.67036446      -0.00000284      -0.00000423      -0.00000303
H        6.04984660       1.71714604       2.54789768      -0.00001026       0.00001117      -0.00000170
H       10.40313143      12.39075679       0.96509343      -0.00001573       0.00000166       0.00001538
H       -0.38284389       7.08341797       2.51532504      -0.00001293       0.00000416       0.00002681
H       15.70372181       6.09876516       0.16060546      -0.00000078      -0.00000407       0.00000444
C        4.11723244       2.55723559       2.53186588       0.00002646       0.00000108       0.00000901
C       11.20367557      10.62485509       0.14447766      -0.00004425      -0.00005797      -0.00001013
C        1.55457929       7.91140739       2.51200690       0.00000105      -0.00000882       0.00000424
C       13.76628349       5.27081003       0.16423859      -0.00004848       0.00003312       0.00001802
Pb      -1.01714831       2.78948226       0.17511159       0.00001091       0.00001397      -0.00000291
Pb      16.33800171      10.39265432       2.50124611       0.00001279      -0.00000961       0.00000360
Pb       6.66887985       8.34191712       0.14554768      -0.00001578      -0.00000436       0.00000324
Pb       8.65199984       4.84027447       2.53082237       0.00001091       0.00000669       0.00000742
N        5.06456329       1.41288049       2.53978600       0.00000621       0.00000652      -0.00002081
N       10.25637868      11.76923861       0.13662647      -0.00004219       0.00000948       0.00001071
N        0.60031961       6.77234975       2.51639212       0.00001227       0.00000184      -0.00004310
N       14.72056302       6.40985036       0.15980317       0.00001110       0.00000223       0.00002367
I       17.00728994       4.87627605       7.25052410       0.00001205      -0.00000258       0.00001241
I       17.62181083       8.55103837       4.86597669      -0.00000777      -0.00000256       0.00000077
I        7.95340882      10.18108663       7.22756996       0.00000946       0.00000998       0.00000281
I        7.34734472       2.99985385       4.89114457       0.00000101       0.00000318       0.00001316
I       15.27638912       1.48177484       4.90577481       0.00000092       0.00000321      -0.00000423
I        0.02440353      11.69915455       7.21289424      -0.00000192       0.00000482      -0.00000930
I        9.69257987       6.80823892       4.89244835      -0.00000019      -0.00000226      -0.00001324
I        5.60815868       6.37271277       7.22630703      -0.00000250      -0.00000763       0.00000470
I        1.64653967       4.43641499       4.88284026       0.00000947       0.00000571       0.00001767
I       13.65423368       8.74455699       7.23574236      -0.00001002      -0.00000998      -0.00000797
I        3.96327198       9.95046499       4.85450911      -0.00000194       0.00000486      -0.00000813
I       11.33741860       3.23042774       7.26419183      -0.00000212      -0.00002092       0.00001134
H        3.08355101       2.16821753       7.24731603      -0.00002220      -0.00001616      -0.00000009
H       11.02681888      10.01603518       3.97256940      -0.00001266       0.00000613      -0.00001390
H        1.37499280       8.52264100       8.12348564      -0.00001013      -0.00000386       0.00000328
H       13.92528146       4.66617942       5.78170017       0.00000634      -0.00000627      -0.00000256
H        4.27451141       3.16504991       8.14628793      -0.00001309      -0.00003815      -0.00002147
H       12.21727575      11.01297078       4.87208069      -0.00002652      -0.00001543      -0.00001451
H        2.56618837       7.51645993       7.23505208       0.00000184       0.00000818      -0.00000844
H       12.73457147       5.66438831       4.88351891       0.00000690       0.00000531       0.00001135
H        4.28585908       3.16188448       6.35976169      -0.00000315       0.00000792      -0.00002415
H       11.01472069      10.01911217       5.75909254      -0.00001003      -0.00001021       0.00001290
H        1.37536088       8.51481154       6.33717904       0.00001104      -0.00000197      -0.00001610
H       13.92587983       4.65806292       3.99539411      -0.00001135       0.00001419      -0.00000409
H        4.89603873       0.79210655       8.08817667       0.00000567       0.00000505      -0.00000665
H       10.39268118      12.39016192       5.68621973       0.00001111       0.00000953      -0.00000383
H        0.73810085       6.14709385       6.41162506      -0.00000556      -0.00001803      -0.00001820
H       14.56261204       7.03384217       5.70699453      -0.00000085      -0.00000424      -0.00002007
H        6.03977308       1.71653743       7.26895297      -0.00000232       0.00001161       0.00000526
H        9.26100927      11.46428784       4.84924553       0.00000322       0.00001241       0.00001241
H       -0.39290106       7.08273360       7.23717998       0.00002154      -0.00000643      -0.00001094
H       14.56285292       7.02794003       4.05079179      -0.00000642       0.00001931      -0.00001161
H        4.90767201       0.79075825       6.43249037       0.00000921      -0.00001811       0.00000211
H       10.40495612      12.38889770       4.03053790      -0.00000497      -0.00000863      -0.00000468
H        0.73797808       6.15280893       8.06782886       0.00000340       0.00001620       0.00000065
H       15.69366358       6.09809927       4.88163242      -0.00000641       0.00001223       0.00000430
C        4.10720820       2.55674431       7.25299916       0.00003508       0.00002249       0.00003722
C       11.19366714      10.62431647       4.86595816       0.00003878       0.00002809      -0.00002494
C        1.54451933       7.91073343       7.23306805       0.00000646       0.00000726       0.00000533
C       13.75623978       5.27011371       4.88569175      -0.00000461      -0.00000831      -0.00001767
Pb      -1.02720310       2.78887888       4.89626946       0.00000031       0.00001035       0.00000723
Pb      16.32801721      10.39205399       7.22236070       0.00000238      -0.00000854      -0.00000167
Pb       6.65884486       8.34129903       4.86674550      -0.00000911      -0.00001295       0.00000855
Pb       8.64189531       4.83963294       7.25199588       0.00000520       0.00000054      -0.00000205
N        5.05447101       1.41233208       7.26091031      -0.00000833       0.00001164      -0.00000892
N       10.24627038      11.76861522       4.85772011      -0.00000945      -0.00000830       0.00000303
N        0.59026599       6.77167186       7.23771315      -0.00002081       0.00001780       0.00003157
N       14.71049967       6.40916997       4.88098277       0.00000945       0.00000549       0.00004420
