768
Lattice="25.372311069888333 0.12811577384479955 -0.07871331758822524 -0.23132306924290266 25.17602739856273 -0.09533645963181216 -0.23946007793711616 0.14176957436104093 25.180189486626762" Properties=species:S:1:pos:R:3:forces:R:3 energy=-3350.7477525840336 stress="0.005139206837221319 -9.474594298506272e-05 0.0012545048801948157 -9.474594298506272e-05 0.002025555352956146 7.564051792578574e-05 0.0012545048801948157 7.564051792578574e-05 0.004474370747413672" free_energy=-3350.7477525840336 pbc="T T T"
I        4.36419687       0.25053275       1.89536080      -0.00001275      -0.00001013      -0.00000913
I        5.60823876      13.58456668       8.17453525       0.00000289       0.00000395       0.00000348
I        5.35071756      10.07020737       5.59954387       0.00000297      -0.00001129       0.00001793
I        4.62164396       3.76484535       4.47028873       0.00001620       0.00000653       0.00001157
I       23.21785593      12.97001227       8.08369313      -0.00000451       0.00000138      -0.00000683
I       12.12682675       0.99314932       1.90747202      -0.00000328      -0.00000003       0.00000709
I       11.92146974       3.80879083       5.45725489      -0.00000517       0.00001618      -0.00000282
I       23.42319839      10.15435882       4.53388637       0.00000298      -0.00000927       0.00001397
I        8.05546094      12.94284435      11.98978763      -0.00000465       0.00000706       0.00000176
I        1.82627739       7.22948549       5.74069784       0.00000792       0.00000502       0.00000206
I        1.88791322       0.28740334       5.76209390      -0.00000887      -0.00000435      -0.00000149
I        8.08448749      13.54763781       4.30776260      -0.00000483       0.00000678      -0.00000465
H        2.77203979       4.63132671       0.95802935       0.00001867       0.00003035      -0.00001350
H        9.80027399       3.78021548       2.43321608       0.00000346      -0.00001125      -0.00001703
H        6.57499910      10.05149775       1.32173073       0.00000702      -0.00001956      -0.00000324
H        3.39737176       3.78363123       8.74796182       0.00001112      -0.00001479       0.00000312
H        0.78431857       9.16752983       9.07170562      -0.00003401       0.00000076       0.00000843
H        9.19794623       2.86986871       1.00853741       0.00001611      -0.00004207      -0.00002359
H        9.05525849       4.69893220       7.23351856       0.00001296       0.00002491      -0.00001827
H        2.79507728       2.87330498       7.32325559       0.00001922      -0.00002793      -0.00000845
H        1.34335966       3.72358256       0.36067582      -0.00000630       0.00001063      -0.00002054
H        9.18804145       4.66745485       0.99820904       0.00001294       0.00000808      -0.00001381
H        7.17723339      10.96171603       2.74652530      -0.00001185       0.00003658       0.00002530
H        2.78516949       4.67088965       7.31295690      -0.00000303       0.00004244      -0.00003098
H        0.98232162       2.90349719       2.60153158      -0.00002227      -0.00002774      -0.00000848
H        7.64285163      10.08340883       6.88763404      -0.00002141       0.00001246      -0.00001199
H        8.81414415       9.22243666       0.95979252      -0.00002659       0.00002471       0.00001166
H        1.35972134      10.01608214       0.61225245      -0.00003449      -0.00000578      -0.00000033
H        0.97610127       4.58013228       2.58720479      -0.00000155      -0.00001186       0.00001844
H        8.99631912       9.25492384       7.48266817      -0.00000323       0.00000786      -0.00001060
H        9.39925133      10.07228310       2.30314417       0.00001949       0.00001650       0.00002808
H        2.71316925       9.18758166       1.20729840      -0.00000185       0.00001160       0.00000313
H        2.32955724       3.75159306       3.18219837       0.00001336       0.00002746      -0.00000883
H        7.57102649       2.93109455       2.80465466      -0.00000934      -0.00000774       0.00001322
H        8.80429341      10.90050569       0.95051170       0.00001659       0.00001238      -0.00002412
H        2.70685482      10.86422242       1.19310818      -0.00000799      -0.00001237      -0.00000687
C        0.89915406      10.06345584       8.45463212       0.00002032       0.00004645      -0.00001416
C        9.07314562       3.77153911       1.61528611       0.00001728       0.00004378       0.00004289
C        8.44575989       3.79968682       7.36181157      -0.00002971      -0.00004440       0.00002271
C        2.67026097       3.77496535       7.93001683       0.00000275      -0.00001586       0.00004351
Pb       4.98616931       6.91752260       5.03495025       0.00001790      -0.00000368      -0.00000480
Pb       4.92840084      13.21154310       5.01112965      -0.00001639      -0.00000348       0.00000589
Pb      23.89772879      13.34302296      11.24712850       0.00000347       0.00001894      -0.00001380
Pb      23.95761425      13.30761953       4.95207841      -0.00001198      -0.00001595       0.00000061
N        1.58188194       3.74283963       2.45963055      -0.00000598      -0.00000671      -0.00001341
N        8.39049977      10.09219162       7.61022763       0.00005084       0.00000550       0.00002257
N        8.67460181      10.06410009       1.55748346      -0.00003342      -0.00004191      -0.00002816
N        2.10732952      10.02482973       1.33488693       0.00002386      -0.00000705       0.00002733
I        5.67923681       6.58835858       8.20187318      -0.00000377      -0.00000107      -0.00000144
I        4.29309116       7.24666884       1.86801441       0.00000333      -0.00000582      -0.00000744
I        5.51850624       3.81220126      11.77198656       0.00000614      -0.00000590      -0.00000530
I        4.21434366      10.16458829      23.47803617       0.00000988       0.00000951       0.00002124
I       24.76830419       6.64899182       1.84777738       0.00000266      -0.00000162      -0.00000687
I       10.57637480       7.31413716       8.14336782      -0.00000754       0.00000434       0.00001213
I       11.51423648      10.20854435      24.46507666      -0.00000636      -0.00000504      -0.00000375
I       23.59105173       3.89635332      10.70632014      -0.00000906       0.00000391       0.00000510
I        8.14606318       6.60556246       4.32914529      -0.00001333       0.00000653      -0.00000168
I        1.56181066      13.62195396      23.21258140       0.00000040      -0.00001304       0.00000492
I        1.74312670       6.60890333      10.64391611       0.00000427       0.00001782      -0.00000847
I        7.98976852       7.36784226      24.60613270       0.00000537       0.00000259       0.00000872
H        0.17198330      10.05477091       7.63674085      -0.00000425      -0.00001012      -0.00000646
H        7.19562740      11.00109743       9.09603778       0.00000861      -0.00001299      -0.00000043
H        7.62662298       3.79117692       6.63607482      -0.00001292       0.00001370      -0.00000783
H        0.91712059       9.13611105       2.83631026       0.00000852       0.00001061       0.00001837
H        2.77661347       2.83384108       0.97376534       0.00001846      -0.00000259      -0.00000064
H        7.20036099       9.20361141       9.11178880      -0.00000498       0.00000248       0.00001075
H        7.18705200       9.16412726       2.75673644      -0.00000067       0.00002213      -0.00001254
H        2.34563977      10.04397718       3.43387087      -0.00000187      -0.00001628      -0.00000398
H        0.77435898      10.96511723       9.06139897      -0.00000927      -0.00001829      -0.00000568
H        8.62893608      10.11148808       9.70919377       0.00001107      -0.00000966       0.00001060
H        9.05990314       2.90144520       7.24911750       0.00001169       0.00000694       0.00001495
H        0.91234483      10.93359594       2.82069306       0.00000268       0.00000630      -0.00001082
H        2.99636216      10.07577514       8.61775944       0.00002274      -0.00001195      -0.00001511
H        6.97593735       3.75929666       1.45206708      -0.00001726      -0.00000947      -0.00002055
H        7.26559524       2.97090242       8.87687459      -0.00002789      -0.00002461       0.00001901
H        1.16812494       2.93450286       9.11935091      -0.00001014      -0.00003820       0.00003040
H        2.40119366      10.90394979       7.26518678       0.00001784       0.00000708      -0.00000312
H        7.56115188       4.60916295       2.79536058      -0.00000682      -0.00000127      -0.00001310
H        7.25929686       4.64753817       8.86266753      -0.00002014       0.00002458      -0.00001295
H        0.57305425       3.76270040       7.76675328      -0.00000337       0.00000301      -0.00000746
H        2.41112378       9.22587834       7.27449292       0.00001857       0.00001858       0.00001484
H        8.99003441      10.93155956       7.46835527      -0.00002452      -0.00000447       0.00000228
H        8.61278922       3.81902986       9.45761004      -0.00003259      -0.00000927      -0.00002367
H        1.15823357       4.61256850       9.11006269      -0.00000595      -0.00000092      -0.00001239
C        2.16250792       3.73211526       1.08639936      -0.00002114      -0.00000465       0.00002942
C        7.80981907      10.10287691       8.98343599      -0.00002130       0.00000065      -0.00000697
C        7.30205074      10.06007936       2.13972966       0.00003199      -0.00004798       0.00001093
C        1.52656661      10.03540037       2.70806214       0.00000944      -0.00001391      -0.00001218
Pb       4.86848248      13.24695308      11.30615807       0.00000631       0.00000400      -0.00001973
Pb       4.92628980       6.95295487      11.32999333       0.00001962       0.00000953      -0.00001045
Pb      24.01540363       7.01361216       4.97588214      -0.00001217      -0.00000455       0.00000678
Pb      23.95555146       7.04903668      11.27094703      -0.00001697       0.00000178       0.00000143
N        2.27162070      10.06754458       7.87218961      -0.00000546      -0.00001429       0.00000301
N        7.70065190       3.76749718       2.19766336       0.00000397       0.00000586       0.00003142
N        7.86511603       3.81028475       8.73503778       0.00009049       0.00000236      -0.00002004
N        1.29775469       3.77090730       8.51236426      -0.00000921       0.00003068      -0.00001019
I        4.24446683       0.32141754      14.48545554      -0.00001276      -0.00001013      -0.00000911
I        5.48850872      13.65545147      20.76462999       0.00000288       0.00000395       0.00000348
I        5.23098752      10.14109216      18.18963861       0.00000297      -0.00001129       0.00001793
I        4.50191392       3.83573014      17.06038347       0.00001620       0.00000653       0.00001158
I       23.09812589      13.04089706      20.67378788      -0.00000451       0.00000138      -0.00000683
I       12.00709671       1.06403411      14.49756676      -0.00000328      -0.00000003       0.00000710
I       11.80173970       3.87967562      18.04734963      -0.00000516       0.00001615      -0.00000282
I       23.30346835      10.22524361      17.12398112       0.00000298      -0.00000929       0.00001397
I        7.93573090      13.01372914      24.57988237      -0.00000464       0.00000706       0.00000176
I        1.70654735       7.30037028      18.33079258       0.00000793       0.00000502       0.00000206
I        1.76818318       0.35828813      18.35218864      -0.00000884      -0.00000435      -0.00000149
I        7.96475745      13.61852260      16.89785734      -0.00000483       0.00000678      -0.00000465
H        2.65230975       4.70221150      13.54812409       0.00001867       0.00003035      -0.00001350
H        9.68054395       3.85110027      15.02331082       0.00000346      -0.00001125      -0.00001703
H        6.45526906      10.12238254      13.91182547       0.00000702      -0.00001956      -0.00000324
H        3.27764172       3.85451602      21.33805656       0.00001112      -0.00001479       0.00000312
H        0.66458853       9.23841462      21.66180036      -0.00003401       0.00000076       0.00000843
H        9.07821619       2.94075350      13.59863215       0.00001611      -0.00004207      -0.00002359
H        8.93552845       4.76981699      19.82361330       0.00001296       0.00002491      -0.00001827
H        2.67534724       2.94418977      19.91335033       0.00001922      -0.00002793      -0.00000845
H        1.22362962       3.79446735      12.95077056      -0.00000630       0.00001063      -0.00002054
H        9.06831141       4.73833964      13.58830378       0.00001294       0.00000807      -0.00001381
H        7.05750335      11.03260082      15.33662004      -0.00001185       0.00003658       0.00002530
H        2.66543945       4.74177444      19.90305164      -0.00000303       0.00004244      -0.00003098
H        0.86259158       2.97438198      15.19162632      -0.00002227      -0.00002775      -0.00000848
H        7.52312159      10.15429362      19.47772878      -0.00002141       0.00001246      -0.00001199
H        8.69441411       9.29332145      13.54988726      -0.00002659       0.00002472       0.00001166
H        1.23999130      10.08696693      13.20234719      -0.00003449      -0.00000578      -0.00000033
H        0.85637123       4.65101707      15.17729953      -0.00000155      -0.00001185       0.00001844
H        8.87658908       9.32580863      20.07276291      -0.00000323       0.00000786      -0.00001060
H        9.27952129      10.14316789      14.89323891       0.00001949       0.00001649       0.00002807
H        2.59343921       9.25846645      13.79739314      -0.00000185       0.00001160       0.00000313
H        2.20982720       3.82247785      15.77229311       0.00001335       0.00002746      -0.00000883
H        7.45129645       3.00197934      15.39474940      -0.00000934      -0.00000773       0.00001321
H        8.68456337      10.97139048      13.54060644       0.00001659       0.00001238      -0.00002412
H        2.58712478      10.93510721      13.78320292      -0.00000800      -0.00001237      -0.00000687
C        0.77942402      10.13434063      21.04472686       0.00002031       0.00004645      -0.00001416
C        8.95341558       3.84242390      14.20538085       0.00001728       0.00004378       0.00004290
C        8.32602985       3.87057161      19.95190631      -0.00002971      -0.00004440       0.00002271
C        2.55053093       3.84585014      20.52011157       0.00000275      -0.00001586       0.00004351
Pb       4.86643927       6.98840739      17.62504499       0.00001791      -0.00000368      -0.00000480
Pb       4.80867080      13.28242789      17.60122439      -0.00001638      -0.00000348       0.00000590
Pb      23.77799875      13.41390775      23.83722325       0.00000348       0.00001894      -0.00001381
Pb      23.83788421      13.37850432      17.54217316      -0.00001197      -0.00001596       0.00000060
N        1.46215190       3.81372442      15.04972529      -0.00000598      -0.00000672      -0.00001342
N        8.27076973      10.16307641      20.20032237       0.00005084       0.00000550       0.00002257
N        8.55487177      10.13498488      14.14757820      -0.00003342      -0.00004192      -0.00002815
N        1.98759948      10.09571452      13.92498167       0.00002386      -0.00000705       0.00002733
I        5.55950677       6.65924337      20.79196792      -0.00000377      -0.00000107      -0.00000144
I        4.17336112       7.31755363      14.45810915       0.00000333      -0.00000582      -0.00000743
I        5.39877620       3.88308605      24.36208130       0.00000615      -0.00000593      -0.00000530
I        4.33407370      10.09370351      10.88794142       0.00000988       0.00000948       0.00002125
I       24.64857415       6.71987661      14.43787213       0.00000266      -0.00000161      -0.00000689
I       10.45664476       7.38502195      20.73346256      -0.00000753       0.00000434       0.00001213
I       11.63396652      10.13765957      11.87498191      -0.00000636      -0.00000504      -0.00000374
I       23.47132169       3.96723811      23.29641489      -0.00000906       0.00000391       0.00000510
I        8.02633314       6.67644725      16.91924003      -0.00001332       0.00000653      -0.00000168
I        1.68154070      13.55106918      10.62248665       0.00000040      -0.00001306       0.00000493
I        1.62339666       6.67978812      23.23401085       0.00000426       0.00001781      -0.00000846
I        8.10949856       7.29695748      12.01603795       0.00000536       0.00000259       0.00000873
H        0.05225326      10.12565570      20.22683559      -0.00000425      -0.00001012      -0.00000646
H        7.07589736      11.07198222      21.68613252       0.00000861      -0.00001299      -0.00000043
H        7.50689294       3.86206171      19.22616956      -0.00001292       0.00001370      -0.00000783
H        0.79739055       9.20699584      15.42640500       0.00000852       0.00001061       0.00001837
H        2.65688343       2.90472587      13.56386008       0.00001846      -0.00000259      -0.00000064
H        7.08063095       9.27449620      21.70188354      -0.00000498       0.00000248       0.00001075
H        7.06732196       9.23501205      15.34683118      -0.00000067       0.00002213      -0.00001254
H        2.22590973      10.11486197      16.02396561      -0.00000186      -0.00001628      -0.00000398
H        0.65462894      11.03600202      21.65149371      -0.00000927      -0.00001829      -0.00000568
H        8.50920604      10.18237287      22.29928851       0.00001107      -0.00000966       0.00001060
H        8.94017310       2.97232999      19.83921224       0.00001169       0.00000694       0.00001495
H        0.79261479      11.00448073      15.41078780       0.00000268       0.00000631      -0.00001082
H        2.87663212      10.14665993      21.20785418       0.00002273      -0.00001195      -0.00001511
H        6.85620731       3.83018145      14.04216182      -0.00001727      -0.00000947      -0.00002055
H        7.14586520       3.04178721      21.46696933      -0.00002789      -0.00002461       0.00001901
H        1.04839490       3.00538765      21.70944565      -0.00001014      -0.00003819       0.00003040
H        2.28146362      10.97483458      19.85528152       0.00001784       0.00000708      -0.00000312
H        7.44142184       4.68004774      15.38545532      -0.00000682      -0.00000127      -0.00001310
H        7.13956682       4.71842296      21.45276227      -0.00002014       0.00002458      -0.00001295
H        0.45332421       3.83358519      20.35684802      -0.00000337       0.00000300      -0.00000746
H        2.29139374       9.29676313      19.86458766       0.00001857       0.00001857       0.00001484
H        8.87030437      11.00244435      20.05845001      -0.00002452      -0.00000447       0.00000228
H        8.49305918       3.88991465      22.04770478      -0.00003259      -0.00000927      -0.00002367
H        1.03850353       4.68345329      21.70015743      -0.00000595      -0.00000092      -0.00001239
C        2.04277788       3.80300005      13.67649410      -0.00002114      -0.00000466       0.00002942
C        7.69008903      10.17376170      21.57353073      -0.00002130       0.00000065      -0.00000697
C        7.18232070      10.13096415      14.72982440       0.00003199      -0.00004798       0.00001093
C        1.40683657      10.10628516      15.29815688       0.00000944      -0.00001391      -0.00001218
Pb       4.74875244      13.31783787      23.89625281       0.00000632       0.00000399      -0.00001972
Pb       4.80655976       7.02383966      23.92008807       0.00001962       0.00000952      -0.00001044
Pb      23.89567359       7.08449695      17.56597689      -0.00001215      -0.00000455       0.00000677
Pb      23.83582142       7.11992147      23.86104178      -0.00001697       0.00000178       0.00000141
N        2.15189066      10.13842937      20.46228435      -0.00000545      -0.00001429       0.00000302
N        7.58092186       3.83838197      14.78775810       0.00000398       0.00000585       0.00003143
N        7.74538599       3.88116954      21.32513252       0.00009050       0.00000237      -0.00002003
N        1.17802465       3.84179209      21.10245900      -0.00000921       0.00003067      -0.00001018
I        4.24853534      12.83854645       1.84769257      -0.00001276      -0.00001013      -0.00000912
I        5.72390029       0.99655298       8.22220348       0.00000289       0.00000395       0.00000348
I        5.23505603      22.65822107       5.55187564       0.00000297      -0.00001129       0.00001793
I        4.50598243      16.35285905       4.42262050       0.00001620       0.00000653       0.00001157
I       23.33351746       0.38199857       8.13136136      -0.00000450       0.00000139      -0.00000682
I       12.01116522      13.58116302       1.85980379      -0.00000328      -0.00000003       0.00000709
I       11.80580821      16.39680453       5.40958666      -0.00000517       0.00001618      -0.00000282
I       23.30753686      22.74237252       4.48621814       0.00000298      -0.00000927       0.00001397
I        8.17112247       0.35483065      12.03745586      -0.00000463       0.00000706       0.00000176
I        1.71061586      19.81749919       5.69302961       0.00000792       0.00000502       0.00000206
I        1.77225169      12.87541704       5.71442567      -0.00000887      -0.00000434      -0.00000149
I        8.20014902       0.95962411       4.35543083      -0.00000483       0.00000678      -0.00000465
H        2.65637826      17.21934041       0.91036112       0.00001867       0.00003035      -0.00001350
H        9.68461246      16.36822918       2.38554785       0.00000346      -0.00001125      -0.00001703
H        6.45933757      22.63951145       1.27406250       0.00000702      -0.00001956      -0.00000324
H        3.28171023      16.37164493       8.70029359       0.00001112      -0.00001479       0.00000312
H        0.66865704      21.75554353       9.02403739      -0.00003401       0.00000076       0.00000843
H        9.08228470      15.45788241       0.96086918       0.00001611      -0.00004207      -0.00002359
H        8.93959696      17.28694590       7.18585033       0.00001296       0.00002491      -0.00001827
H        2.67941575      15.46131868       7.27558736       0.00001922      -0.00002793      -0.00000845
H        1.22769813      16.31159626       0.31300759      -0.00000630       0.00001063      -0.00002054
H        9.07237992      17.25546855       0.95054081       0.00001294       0.00000807      -0.00001381
H        7.06157186      23.54972973       2.69885707      -0.00001185       0.00003658       0.00002530
H        2.66950796      17.25890335       7.26528867      -0.00000303       0.00004244      -0.00003098
H        0.86666009      15.49151089       2.55386335      -0.00002227      -0.00002775      -0.00000848
H        7.52719010      22.67142253       6.83996581      -0.00002141       0.00001246      -0.00001199
H        8.69848262      21.81045036       0.91212429      -0.00002659       0.00002472       0.00001166
H        1.24405981      22.60409584       0.56458422      -0.00003449      -0.00000578      -0.00000033
H        0.86043974      17.16814598       2.53953656      -0.00000155      -0.00001186       0.00001844
H        8.88065759      21.84293754       7.43499994      -0.00000323       0.00000786      -0.00001060
H        9.28358980      22.66029680       2.25547594       0.00001949       0.00001650       0.00002808
H        2.59750772      21.77559536       1.15963017      -0.00000185       0.00001160       0.00000313
H        2.21389571      16.33960676       3.13453014       0.00001336       0.00002746      -0.00000883
H        7.45536496      15.51910825       2.75698643      -0.00000934      -0.00000774       0.00001322
H        8.68863188      23.48851939       0.90284347       0.00001659       0.00001238      -0.00002412
H        2.59119329      23.45223612       1.14543995      -0.00000799      -0.00001236      -0.00000686
C        0.78349253      22.65146954       8.40696389       0.00002032       0.00004645      -0.00001416
C        8.95748409      16.35955281       1.56761788       0.00001728       0.00004378       0.00004290
C        8.33009836      16.38770052       7.31414334      -0.00002971      -0.00004440       0.00002271
C        2.55459944      16.36297905       7.88234860       0.00000274      -0.00001586       0.00004351
Pb       4.87050778      19.50553630       4.98728202       0.00001790      -0.00000368      -0.00000480
Pb       5.04406237       0.62352940       5.05879788      -0.00001638      -0.00000348       0.00000590
Pb      24.01339032       0.75500926      11.29479673       0.00000349       0.00001895      -0.00001380
Pb      24.07327578       0.71960583       4.99974664      -0.00001197      -0.00001595       0.00000062
N        1.46622041      16.33085333       2.41196232      -0.00000598      -0.00000671      -0.00001341
N        8.27483824      22.68020532       7.56255940       0.00005084       0.00000550       0.00002257
N        8.55894028      22.65211379       1.50981523      -0.00003342      -0.00004191      -0.00002816
N        1.99166799      22.61284343       1.28721870       0.00002384      -0.00000706       0.00002732
I        5.56357528      19.17637228       8.15420495      -0.00000377      -0.00000107      -0.00000144
I        4.17742963      19.83468254       1.82034618       0.00000333      -0.00000582      -0.00000744
I        5.40284471      16.40021496      11.72431833       0.00000614      -0.00000591      -0.00000530
I        4.09868213      22.75260199      23.43036794       0.00000988       0.00000951       0.00002124
I       24.65264266      19.23700552       1.80010915       0.00000266      -0.00000162      -0.00000688
I       10.46071327      19.90215086       8.09569959      -0.00000754       0.00000434       0.00001213
I       11.39857495      22.79655805      24.41740843      -0.00000637      -0.00000504      -0.00000375
I       23.47539020      16.48436702      10.65865191      -0.00000906       0.00000392       0.00000510
I        8.03040165      19.19357616       4.28147706      -0.00001333       0.00000653      -0.00000168
I        1.67747220       1.03394027      23.26024963       0.00000040      -0.00001306       0.00000492
I        1.62746517      19.19691703      10.59624788       0.00000426       0.00001782      -0.00000847
I        7.87410699      19.95585596      24.55846447       0.00000536       0.00000260       0.00000872
H        0.05632177      22.64278461       7.58907262      -0.00000425      -0.00001012      -0.00000646
H        7.07996587      23.58911113       9.04836955       0.00000861      -0.00001299      -0.00000043
H        7.51096145      16.37919062       6.58840659      -0.00001292       0.00001370      -0.00000783
H        0.80145906      21.72412475       2.78864203       0.00000852       0.00001061       0.00001837
H        2.66095194      15.42185478       0.92609711       0.00001846      -0.00000259      -0.00000064
H        7.08469946      21.79162511       9.06412057      -0.00000498       0.00000248       0.00001075
H        7.07139047      21.75214096       2.70906821      -0.00000067       0.00002213      -0.00001254
H        2.22997824      22.63199088       3.38620264      -0.00000187      -0.00001628      -0.00000398
H        0.65869745      23.55313093       9.01373074      -0.00000927      -0.00001829      -0.00000568
H        8.51327455      22.69950178       9.66152554       0.00001107      -0.00000966       0.00001060
H        8.94424161      15.48945890       7.20144927       0.00001169       0.00000694       0.00001495
H        0.79668330      23.52160964       2.77302483       0.00000268       0.00000631      -0.00001082
H        2.88070063      22.66378884       8.57009121       0.00002274      -0.00001195      -0.00001511
H        6.86027582      16.34731036       1.40439885      -0.00001726      -0.00000947      -0.00002055
H        7.14993371      15.55891612       8.82920636      -0.00002789      -0.00002461       0.00001901
H        1.05246341      15.52251656       9.07168268      -0.00001014      -0.00003820       0.00003040
H        2.28553213      23.49196349       7.21751855       0.00001784       0.00000708      -0.00000312
H        7.44549035      17.19717665       2.74769235      -0.00000682      -0.00000127      -0.00001310
H        7.14363533      17.23555187       8.81499930      -0.00002014       0.00002458      -0.00001295
H        0.45739272      16.35071410       7.71908505      -0.00000337       0.00000301      -0.00000746
H        2.29546225      21.81389204       7.22682469       0.00001857       0.00001858       0.00001484
H        8.87437288      23.51957326       7.42068704      -0.00002452      -0.00000447       0.00000228
H        8.49712769      16.40704356       9.40994181      -0.00003259      -0.00000927      -0.00002367
H        1.04257204      17.20058220       9.06239446      -0.00000595      -0.00000093      -0.00001240
C        2.04684639      16.32012896       1.03873113      -0.00002114      -0.00000465       0.00002942
C        7.69415754      22.69089061       8.93576776      -0.00002130       0.00000065      -0.00000697
C        7.18638921      22.64809306       2.09206143       0.00003199      -0.00004798       0.00001093
C        1.41090508      22.62341407       2.66039391       0.00000944      -0.00001391      -0.00001218