320
Lattice="25.117167797060432 -0.09942898589547293 0.245739354310531 0.09234873414682507 24.803169083916103 0.36969369071538927 -0.23051060692048364 0.5679749800243742 24.79898651320745" Properties=species:S:1:pos:R:3:forces:R:3 energy=-986.6363404876276 stress="0.0016931816428906172 -1.391591251118742e-07 1.4076870980971901e-05 -1.391591251118742e-07 0.0014738529772289686 -0.0002717622028829083 1.4076870980971901e-05 -0.0002717622028829083 0.0014803312882747453" free_energy=-986.6363404876276 pbc="T T T"
Cs      15.09191471      10.70704895       6.23423406       0.00000125       0.00001305      -0.00000662
Cs       8.78424452       5.49952285       7.04097766      -0.00001088       0.00000579      -0.00000249
Cs       8.73004667       5.94673987      12.93306577      -0.00000516      -0.00001467      -0.00000242
Cs      15.03780287      11.15433502      12.12626904      -0.00001064      -0.00000924       0.00000609
Cs      15.01117445       4.64830646      12.34155700       0.00002270       0.00001748      -0.00001183
Cs       8.74970426      11.84236737      13.33319840      -0.00001221      -0.00001045      -0.00000546
Cs       8.81075464      12.00558779       6.82575560       0.00000525      -0.00000278       0.00000366
Cs      15.07234624       4.81156020       5.83411928       0.00000065      -0.00000615       0.00000012
Pb       5.60858966       2.15101130       9.42978765      -0.00000139       0.00001510      -0.00000014
Pb      11.91099712       8.32693602       9.58362517       0.00000712      -0.00002620       0.00001613
Pb       5.63171619       8.35180839       9.52219971      -0.00001503      -0.00001875      -0.00001650
Pb      11.88789303       2.12613486       9.49126296       0.00000560       0.00001210      -0.00000570
Pb       5.66626346       2.00899520       3.23004947      -0.00003359       0.00002623       0.00000659
Pb      11.96860237       8.18492981       3.38386793       0.00000984       0.00000066       0.00002961
Pb       5.68932166       8.20980162       3.32242176      -0.00000002      -0.00000356       0.00001971
Pb      11.94556292       1.98412647       3.29151520       0.00000160      -0.00000002       0.00000758
I        6.10123710       5.24163243      10.19569925      -0.00000996       0.00001229      -0.00000732
I       12.41698557      11.43333789       8.91998073      -0.00000388      -0.00000905      -0.00000740
I       17.72075434      11.41227007       8.97153919       0.00000534      -0.00001234       0.00002033
I       11.40500924       5.22051987      10.24735405       0.00000641       0.00001671      -0.00001022
I       15.04403098       7.84609218      10.10425359      -0.00000439       0.00000264       0.00000320
I        8.78789720      14.05391729      10.11762136      -0.00001365       0.00000533       0.00000382
I        8.77797147       8.80776003       9.06296939       0.00000372       0.00001543       0.00000144
I       15.03404534       2.59998286       9.04968699       0.00004085      -0.00001126       0.00000838
I       18.74054923      11.25071226       4.21125593      -0.00000137      -0.00002865      -0.00001070
I       12.45152759       5.09053537       2.62783138      -0.00000399       0.00001259      -0.00000925
I        5.08146357       5.40316771      14.95600806      -0.00000397       0.00001319       0.00000930
I       11.37041908      11.56330016      16.53949067       0.00001637      -0.00001197       0.00001818
I        8.70718531       7.99508057      16.22488555       0.00001250       0.00001089       0.00002253
I       14.96332709       1.78725284      16.21163641      -0.00000792       0.00001930       0.00001209
I       15.11477584       8.65876375       2.94234994      -0.00000023      -0.00000545      -0.00001206
I        8.85869755      14.86659409       2.95578005      -0.00000019       0.00000038      -0.00002545
I        5.13532309      13.91072338      12.72350421       0.00002472      -0.00000847       0.00001314
I       11.39740733       9.11442466      12.66529280       0.00000044       0.00001554       0.00000451
I       18.68661451       2.74322624       6.44380063      -0.00000832      -0.00001383      -0.00001854
I       12.42454455       7.53940939       6.50197888      -0.00000219      -0.00000286      -0.00002624
I        5.16993546       7.56792356       6.43130553      -0.00000717      -0.00000676       0.00000936
I       11.47817797      15.17322588       6.55802425      -0.00000463       0.00000587      -0.00001400
I       18.65210268       9.08603913      12.73593671       0.00000102      -0.00001821      -0.00000599
I       12.34385208       1.48060239      12.60934976      -0.00000460       0.00000003      -0.00001742
Cs      14.97665941      10.99103644      18.63372732       0.00000125       0.00001305      -0.00000662
Cs       8.66898922       5.78351034      19.44047092      -0.00001088       0.00000579      -0.00000249
Cs       8.84530197       5.66275238       0.53357251      -0.00000515      -0.00001466      -0.00000241
Cs      14.92254757      11.43832251      24.52576230      -0.00001065      -0.00000924       0.00000608
Cs      14.89591915       4.93229395      24.74105026       0.00002270       0.00001748      -0.00001184
Cs       8.86495956      11.55837988       0.93370514      -0.00001221      -0.00001044      -0.00000546
Cs       8.69549934      12.28957528      19.22524886       0.00000525      -0.00000278       0.00000366
Cs      14.95709094       5.09554769      18.23361254       0.00000065      -0.00000615       0.00000012
Pb       5.49333436       2.43499879      21.82928091      -0.00000139       0.00001510      -0.00000014
Pb      11.79574182       8.61092351      21.98311843       0.00000712      -0.00002619       0.00001612
Pb       5.51646089       8.63579588      21.92169297      -0.00001504      -0.00001874      -0.00001650
Pb      11.77263773       2.41012235      21.89075622       0.00000560       0.00001210      -0.00000571
Pb       5.55100816       2.29298269      15.62954273      -0.00003359       0.00002624       0.00000657
Pb      11.85334707       8.46891730      15.78336119       0.00000985       0.00000066       0.00002961
Pb       5.57406636       8.49378911      15.72191502      -0.00000002      -0.00000356       0.00001970
Pb      11.83030762       2.26811396      15.69100846       0.00000160      -0.00000002       0.00000758
I        5.98598180       5.52561992      22.59519251      -0.00000997       0.00001228      -0.00000733
I       12.30173027      11.71732538      21.31947399      -0.00000388      -0.00000905      -0.00000740
I       17.60549904      11.69625756      21.37103245       0.00000534      -0.00001233       0.00002033
I       11.28975394       5.50450736      22.64684731       0.00000641       0.00001671      -0.00001022
I       14.92877568       8.13007967      22.50374685      -0.00000439       0.00000264       0.00000320
I        8.67264190      14.33790478      22.51711462      -0.00001368       0.00000533       0.00000381
I        8.66271617       9.09174752      21.46246265       0.00000371       0.00001543       0.00000144
I       14.91879004       2.88397035      21.44918025       0.00004084      -0.00001126       0.00000838
I       18.62529393      11.53469975      16.61074919      -0.00000138      -0.00002865      -0.00001071
I       12.33627229       5.37452286      15.02732464      -0.00000399       0.00001259      -0.00000925
I        5.19671887       5.11918022       2.55651480      -0.00000397       0.00001319       0.00000931
I       11.48567438      11.27931267       4.13999741       0.00001637      -0.00001197       0.00001818
I        8.82244061       7.71109308       3.82539229       0.00001250       0.00001089       0.00002253
I       15.07858239       1.50326535       3.81214315      -0.00000792       0.00001930       0.00001210
I       14.99952054       8.94275124      15.34184320      -0.00000024      -0.00000545      -0.00001207
I        8.74344225      15.15058158      15.35527331      -0.00000020       0.00000038      -0.00002545
I        5.25057839      13.62673589       0.32401095       0.00002473      -0.00000846       0.00001315
I       11.51266263       8.83043717       0.26579954       0.00000044       0.00001554       0.00000452
I       18.57135921       3.02721373      18.84329389      -0.00000832      -0.00001383      -0.00001857
I       12.30928925       7.82339688      18.90147214      -0.00000219      -0.00000286      -0.00002625
I        5.05468016       7.85191105      18.83079879      -0.00000717      -0.00000676       0.00000936
I       11.36292267      15.45721337      18.95751751      -0.00000464       0.00000588      -0.00001403
I       18.76735798       8.80205164       0.33644345       0.00000102      -0.00001822      -0.00000598
I       12.45910738       1.19661490       0.20985650      -0.00000460       0.00000003      -0.00001740
Cs      15.13808908      23.10863349       6.41908091       0.00000125       0.00001306      -0.00000662
Cs       8.83041889      17.90110739       7.22582451      -0.00001088       0.00000579      -0.00000249
Cs       8.77622104      18.34832441      13.11791262      -0.00000516      -0.00001467      -0.00000242
Cs      15.08397724      23.55591956      12.31111589      -0.00001065      -0.00000924       0.00000608
Cs      15.05734882      17.04989100      12.52640385       0.00002270       0.00001748      -0.00001184
Cs       8.79587863      24.24395191      13.51804525      -0.00001221      -0.00001044      -0.00000547
Cs       8.85692901      24.40717233       7.01060245       0.00000525      -0.00000278       0.00000365
Cs      15.11852061      17.21314474       6.01896613       0.00000065      -0.00000615       0.00000012
Pb       5.65476403      14.55259584       9.61463450      -0.00000139       0.00001510      -0.00000014
Pb      11.95717149      20.72852056       9.76847202       0.00000712      -0.00002620       0.00001612
Pb       5.67789056      20.75339293       9.70704656      -0.00001504      -0.00001875      -0.00001651
Pb      11.93406740      14.52771940       9.67610981       0.00000560       0.00001210      -0.00000571
Pb       5.71243783      14.41057974       3.41489632      -0.00003360       0.00002624       0.00000657
Pb      12.01477674      20.58651435       3.56871478       0.00000984       0.00000066       0.00002961
Pb       5.73549603      20.61138616       3.50726861      -0.00000002      -0.00000356       0.00001970
Pb      11.99173729      14.38571101       3.47636205       0.00000160      -0.00000002       0.00000756
I        6.14741147      17.64321697      10.38054610      -0.00000996       0.00001229      -0.00000732
I       12.46315994      23.83492243       9.10482758      -0.00000388      -0.00000904      -0.00000740
I       17.76692871      23.81385461       9.15638604       0.00000534      -0.00001233       0.00002033
I       11.45118361      17.62210441      10.43220090       0.00000641       0.00001671      -0.00001022
I       15.09020535      20.24767672      10.28910044      -0.00000439       0.00000264       0.00000320
I        8.74172283       1.65233275       9.93277451      -0.00001365       0.00000532       0.00000382
I        8.82414584      21.20934457       9.24781624       0.00000372       0.00001543       0.00000144
I       15.08021971      15.00156740       9.23453384       0.00004084      -0.00001126       0.00000838
I       18.78672360      23.65229680       4.39610278      -0.00000138      -0.00002865      -0.00001071
I       12.49770196      17.49211991       2.81267823      -0.00000399       0.00001259      -0.00000925
I        5.12763794      17.80475225      15.14085491      -0.00000397       0.00001319       0.00000930
I       11.41659345      23.96488470      16.72433752       0.00001637      -0.00001196       0.00001818
I        8.75335968      20.39666511      16.40973240       0.00001248       0.00001089       0.00002252
I       15.00950146      14.18883738      16.39648326      -0.00000793       0.00001930       0.00001209
I       15.16095021      21.06034829       3.12719679      -0.00000024      -0.00000545      -0.00001207
I        8.81252318       2.46500955       2.77093320      -0.00000019       0.00000038      -0.00002545
I        5.08914872       1.50913884      12.53865736       0.00002472      -0.00000846       0.00001316
I       11.44358170      21.51600920      12.85013965       0.00000043       0.00001555       0.00000449
I       18.73278888      15.14481078       6.62864748      -0.00000832      -0.00001383      -0.00001857
I       12.47071892      19.94099393       6.68682573      -0.00000219      -0.00000286      -0.00002624
I        5.21610983      19.96950810       6.61615238      -0.00000717      -0.00000676       0.00000936
I       11.43200360       2.77164134       6.37317740      -0.00000463       0.00000587      -0.00001401
I       18.69827705      21.48762367      12.92078356       0.00000102      -0.00001822      -0.00000600
I       12.39002645      13.88218693      12.79419661      -0.00000460       0.00000003      -0.00001742
Cs      15.02283377      23.39262098      18.81857416       0.00000125       0.00001306      -0.00000662
Cs       8.71516358      18.18509488      19.62531776      -0.00001087       0.00000579      -0.00000248
Cs       8.89147634      18.06433692       0.71841936      -0.00000516      -0.00001467      -0.00000242
Cs      14.96872193      23.83990705      24.71060914      -0.00001064      -0.00000924       0.00000609
Cs      14.94209351      17.33387849      24.92589710       0.00002270       0.00001748      -0.00001183
Cs       8.91113393      23.95996442       1.11855199      -0.00001221      -0.00001045      -0.00000546
Cs       8.74167370      24.69115982      19.41009570       0.00000526      -0.00000278       0.00000366
Cs      15.00326530      17.49713223      18.41845938       0.00000065      -0.00000615       0.00000012
Pb       5.53950872      14.83658333      22.01412775      -0.00000137       0.00001510      -0.00000013
Pb      11.84191618      21.01250805      22.16796527       0.00000712      -0.00002620       0.00001613
Pb       5.56263525      21.03738042      22.10653981      -0.00001502      -0.00001875      -0.00001650
Pb      11.81881209      14.81170689      22.07560306       0.00000561       0.00001210      -0.00000569
Pb       5.59718252      14.69456723      15.81438957      -0.00003359       0.00002623       0.00000659
Pb      11.89952143      20.87050184      15.96820803       0.00000985       0.00000066       0.00002963
Pb       5.62024072      20.89537365      15.90676186      -0.00000000      -0.00000356       0.00001971
Pb      11.87648198      14.66969850      15.87585530       0.00000162      -0.00000002       0.00000759
I        6.03215616      17.92720446      22.78003935      -0.00000996       0.00001229      -0.00000732
I       12.34790463      24.11890992      21.50432083      -0.00000388      -0.00000904      -0.00000740
I       17.65167340      24.09784210      21.55587929       0.00000535      -0.00001233       0.00002034
I       11.33592830      17.90609190      22.83169415       0.00000641       0.00001672      -0.00001022
I       14.97495004      20.53166421      22.68859369      -0.00000438       0.00000264       0.00000320
I        8.62646753       1.93632024      22.33226777      -0.00001366       0.00000533       0.00000382
I        8.70889053      21.49333206      21.64730949       0.00000373       0.00001543       0.00000144
I       14.96496440      15.28555489      21.63402709       0.00004087      -0.00001126       0.00000839
I       18.67146829      23.93628429      16.79559603      -0.00000137      -0.00002865      -0.00001070
I       12.38244665      17.77610740      15.21217148      -0.00000398       0.00001259      -0.00000925
I        5.24289324      17.52076476       2.74136165      -0.00000397       0.00001319       0.00000931
I       11.53184875      23.68089721       4.32484426       0.00001637      -0.00001196       0.00001818
I        8.86861498      20.11267762       4.01023914       0.00001250       0.00001089       0.00002253
I       15.12475676      13.90484989       3.99699000      -0.00000791       0.00001930       0.00001209
I       15.04569490      21.34433578      15.52669004      -0.00000021      -0.00000545      -0.00001206
I        8.69726788       2.74899704      15.17042646      -0.00000019       0.00000038      -0.00002545
I        5.20440403       1.22515135       0.13916411       0.00002472      -0.00000847       0.00001313
I       11.55883700      21.23202171       0.45064639       0.00000044       0.00001554       0.00000451
I       18.61753357      15.42879827      19.02814073      -0.00000831      -0.00001383      -0.00001854
I       12.35546361      20.22498142      19.08631898      -0.00000219      -0.00000286      -0.00002623
I        5.10085452      20.25349559      19.01564563      -0.00000716      -0.00000676       0.00000936
I       11.31674830       3.05562883      18.77267066      -0.00000463       0.00000587      -0.00001401
I       18.81353235      21.20363618       0.52129030       0.00000102      -0.00001821      -0.00000600
I       12.50528175      13.59819944       0.39470335      -0.00000460       0.00000003      -0.00001741
Cs       2.53333081      10.75676344       6.11136438       0.00000125       0.00001306      -0.00000662
Cs      21.34282842       5.44980836       7.16384734      -0.00001088       0.00000579      -0.00000249
Cs      21.28863057       5.89702538      13.05593545      -0.00000516      -0.00001467      -0.00000242
Cs       2.47921897      11.20404951      12.00339936      -0.00001064      -0.00000924       0.00000609
Cs       2.45259055       4.69802095      12.21868732       0.00002271       0.00001749      -0.00001183
Cs      21.30828816      11.79265288      13.45606808      -0.00001221      -0.00001045      -0.00000546
Cs      21.36933854      11.95587330       6.94862528       0.00000525      -0.00000278       0.00000366
Cs       2.51376234       4.86127469       5.71124960       0.00000065      -0.00000615       0.00000012
Pb      18.16717356       2.10129681       9.55265733      -0.00000139       0.00001510      -0.00000015
Pb      24.46958102       8.27722153       9.70649485       0.00000712      -0.00002619       0.00001612
Pb      18.19030009       8.30209390       9.64506939      -0.00001504      -0.00001875      -0.00001651
Pb      24.44647693       2.07642037       9.61413264       0.00000560       0.00001209      -0.00000571
Pb      18.22484736       1.95928071       3.35291915      -0.00003359       0.00002623       0.00000657
Pb      24.52718627       8.13521532       3.50673761       0.00000984       0.00000066       0.00002961
Pb      18.24790556       8.16008713       3.44529144      -0.00000002      -0.00000356       0.00001970
Pb      24.50414682       1.93441198       3.41438488       0.00000160      -0.00000003       0.00000757
I       18.65982100       5.19191794      10.31856893      -0.00000996       0.00001229      -0.00000732
I       24.97556947      11.38362340       9.04285041      -0.00000388      -0.00000906      -0.00000740
I        5.16217044      11.46198456       8.84866951       0.00000535      -0.00001233       0.00002034
I       23.96359314       5.17080538      10.37022373       0.00000641       0.00001671      -0.00001022
I        2.48544708       7.89580667       9.98138391      -0.00000438       0.00000264       0.00000320
I       21.34648110      14.00420280      10.24049104      -0.00001366       0.00000533       0.00000381
I       21.33655537       8.75804554       9.18583907       0.00000372       0.00001543       0.00000144
I        2.47546144       2.64969735       8.92681731       0.00004085      -0.00001125       0.00000838
I        6.18196533      11.30042675       4.08838625      -0.00000137      -0.00002865      -0.00001070
I       25.01011149       5.04082088       2.75070106      -0.00000399       0.00001259      -0.00000925
I       17.64004747       5.35345322      15.07887774      -0.00000397       0.00001319       0.00000930
I       23.92900298      11.51358567      16.66236035       0.00001637      -0.00001198       0.00001817
I       21.26576921       7.94536608      16.34775523       0.00001250       0.00001089       0.00002252
I        2.40474319       1.83696733      16.08876673      -0.00000792       0.00001930       0.00001209
I        2.55619194       8.70847824       2.81948026      -0.00000023      -0.00000545      -0.00001206
I       21.41728145      14.81687960       3.07864973      -0.00000019       0.00000038      -0.00002545
I       17.69390699      13.86100889      12.84637389       0.00002472      -0.00000846       0.00001313
I       23.95599123       9.06471017      12.78816248       0.00000043       0.00001554       0.00000450
I        6.12803061       2.79294073       6.32093095      -0.00000831      -0.00001383      -0.00001854
I       24.98312845       7.48969490       6.62484856      -0.00000219      -0.00000286      -0.00002624
I       17.72851936       7.51820907       6.55417521      -0.00000717      -0.00000676       0.00000936
I       24.03676187      15.12351139       6.68089393      -0.00000463       0.00000587      -0.00001403
I        6.09351878       9.13575362      12.61306703       0.00000102      -0.00001821      -0.00000598
I       24.90243598       1.43088790      12.73221944      -0.00000460       0.00000003      -0.00001742
Cs       2.41807551      11.04075093      18.51085764       0.00000125       0.00001306      -0.00000662
Cs      21.22757312       5.73379585      19.56334059      -0.00001088       0.00000579      -0.00000248
Cs      21.40388587       5.61303789       0.65644219      -0.00000515      -0.00001467      -0.00000242
Cs       2.36396367      11.48803700      24.40289262      -0.00001065      -0.00000924       0.00000609
Cs       2.33733525       4.98200844      24.61818058       0.00002269       0.00001748      -0.00001183
Cs      21.42354346      11.50866539       1.05657482      -0.00001221      -0.00001045      -0.00000546
Cs      21.25408324      12.23986079      19.34811853       0.00000525      -0.00000278       0.00000366
Cs       2.39850704       5.14526218      18.11074286       0.00000065      -0.00000615       0.00000012
Pb      18.05191826       2.38528430      21.95215058      -0.00000139       0.00001510      -0.00000011
Pb      24.35432572       8.56120902      22.10598810       0.00000712      -0.00002620       0.00001613
Pb      18.07504479       8.58608139      22.04456264      -0.00001504      -0.00001875      -0.00001650
Pb      24.33122163       2.36040786      22.01362589       0.00000559       0.00001210      -0.00000569
Pb      18.10959206       2.24326820      15.75241240      -0.00003360       0.00002623       0.00000659
Pb      24.41193097       8.41920281      15.90623086       0.00000984       0.00000066       0.00002963
Pb      18.13265026       8.44407462      15.84478469      -0.00000002      -0.00000355       0.00001972
Pb      24.38889152       2.21839947      15.81387813       0.00000160      -0.00000002       0.00000759
I       18.54456570       5.47590543      22.71806218      -0.00000996       0.00001228      -0.00000732
I       24.86031417      11.66761089      21.44234366      -0.00000388      -0.00000904      -0.00000739
I        5.04691514      11.74597205      21.24816277       0.00000534      -0.00001234       0.00002033
I       23.84833784       5.45479287      22.76971698       0.00000641       0.00001672      -0.00001022
I        2.37019178       8.17979416      22.38087717      -0.00000438       0.00000264       0.00000320
I       21.23122580      14.28819029      22.63998429      -0.00001368       0.00000533       0.00000382
I       21.22130007       9.04203303      21.58533232       0.00000371       0.00001543       0.00000144
I        2.36020614       2.93368484      21.32631057       0.00004086      -0.00001126       0.00000838
I        6.06671003      11.58441424      16.48787951      -0.00000137      -0.00002865      -0.00001070
I       24.89485619       5.32480837      15.15019431      -0.00000399       0.00001259      -0.00000924
I       17.75530277       5.06946573       2.67938448      -0.00000396       0.00001319       0.00000931
I       24.04425828      11.22959818       4.26286709       0.00001637      -0.00001197       0.00001818
I       21.38102451       7.66137859       3.94826197       0.00001250       0.00001089       0.00002253
I        2.51999849       1.55297984       3.68927348      -0.00000791       0.00001930       0.00001209
I        2.44093664       8.99246573      15.21897352      -0.00000023      -0.00000545      -0.00001207
I       21.30202615      15.10086709      15.47814298      -0.00000020       0.00000038      -0.00002545
I       17.80916229      13.57702140       0.44688063       0.00002473      -0.00000846       0.00001315
I       24.07124653       8.78072268       0.38866922       0.00000044       0.00001554       0.00000451
I        6.01277531       3.07692822      18.72042421      -0.00000832      -0.00001383      -0.00001855
I       24.86787315       7.77368239      19.02434181      -0.00000219      -0.00000286      -0.00002623
I       17.61326406       7.80219656      18.95366846      -0.00000717      -0.00000676       0.00000937
I       23.92150657      15.40749888      19.08038718      -0.00000464       0.00000588      -0.00001400
I        6.20877408       8.85176613       0.21357378       0.00000102      -0.00001821      -0.00000600
I       25.01769128       1.14690041       0.33272618      -0.00000459       0.00000003      -0.00001741
Cs       2.57950518      23.15834798       6.29621123       0.00000125       0.00001306      -0.00000662
Cs      21.38900279      17.85139290       7.34869418      -0.00001088       0.00000579      -0.00000248
Cs      21.33480494      18.29860992      13.24078229      -0.00000516      -0.00001467      -0.00000242
Cs       2.52539334      23.60563405      12.18824621      -0.00001065      -0.00000924       0.00000608
Cs       2.49876492      17.09960549      12.40353417       0.00002270       0.00001749      -0.00001183
Cs      21.35446253      24.19423742      13.64091492      -0.00001221      -0.00001045      -0.00000546
Cs      21.41551291      24.35745784       7.13347212       0.00000525      -0.00000278       0.00000366
Cs       2.55993671      17.26285923       5.89609645       0.00000065      -0.00000615       0.00000012
Pb      18.21334793      14.50288135       9.73750417      -0.00000139       0.00001510      -0.00000012
Pb      24.51575539      20.67880607       9.89134169       0.00000712      -0.00002620       0.00001612
Pb      18.23647446      20.70367844       9.82991623      -0.00001503      -0.00001875      -0.00001649
Pb      24.49265130      14.47800491       9.79897948       0.00000559       0.00001210      -0.00000569
Pb      18.27102173      14.36086525       3.53776599      -0.00003360       0.00002624       0.00000659
Pb      24.57336064      20.53679986       3.69158445       0.00000984       0.00000066       0.00002963
Pb      18.29407993      20.56167167       3.63013828      -0.00000002      -0.00000355       0.00001971
Pb      24.55032119      14.33599652       3.59923172       0.00000160      -0.00000002       0.00000759
I       18.70599537      17.59350248      10.50341577      -0.00000996       0.00001229      -0.00000732
I       25.02174384      23.78520794       9.22769725      -0.00000388      -0.00000904      -0.00000739
I        5.20834481      23.86356910       9.03351636       0.00000534      -0.00001233       0.00002034
I       24.00976751      17.57238992      10.55507057       0.00000641       0.00001672      -0.00001022
I        2.53162145      20.29739121      10.16623076      -0.00000438       0.00000264       0.00000320
I       21.30030673       1.60261826      10.05564419      -0.00001366       0.00000532       0.00000382
I       21.38272974      21.15963008       9.37068591       0.00000371       0.00001543       0.00000145
I        2.52163581      15.05128189       9.11166416       0.00004086      -0.00001125       0.00000838
I        6.22813970      23.70201129       4.27323310      -0.00000138      -0.00002865      -0.00001070
I       25.05628586      17.44240542       2.93554790      -0.00000399       0.00001259      -0.00000925
I       17.68622184      17.75503776      15.26372458      -0.00000397       0.00001319       0.00000931
I       23.97517735      23.91517021      16.84720719       0.00001637      -0.00001196       0.00001818
I       21.31194358      20.34695062      16.53260207       0.00001248       0.00001089       0.00002253
I        2.45091756      14.23855187      16.27361358      -0.00000792       0.00001930       0.00001209
I        2.60236631      21.11006278       3.00432711      -0.00000023      -0.00000544      -0.00001207
I       21.37110708       2.41529506       2.89380288      -0.00000019       0.00000038      -0.00002545
I       17.64773262       1.45942435      12.66152704       0.00002472      -0.00000846       0.00001315
I       24.00216560      21.46629471      12.97300932       0.00000043       0.00001554       0.00000451
I        6.17420498      15.19452527       6.50577780      -0.00000832      -0.00001383      -0.00001855
I       25.02930282      19.89127944       6.80969540      -0.00000219      -0.00000286      -0.00002623
I       17.77469373      19.91979361       6.73902205      -0.00000717      -0.00000676       0.00000937
I       23.99058750       2.72192685       6.49604708      -0.00000463       0.00000587      -0.00001400
I        6.13969315      21.53733816      12.79791388       0.00000102      -0.00001821      -0.00000599
I       24.94861035      13.83247244      12.91706628      -0.00000460       0.00000003      -0.00001740