96
Lattice="12.63555066306692 0.050035031899126545 -0.10543744710831736 0.07936374486671068 12.615421368236913 -0.0012565529568715956 0.03402628139789527 -0.08735495980615506 12.698653545345424" Properties=species:S:1:pos:R:3:forces:R:3 energy=-418.8074152175889 stress="0.005259815487279689 -0.001492238564140929 -0.00018118695109775614 -0.001492238564140929 0.005120770283396574 -0.00019074805104904184 -0.00018118695109775614 -0.00019074805104904184 0.0036922700458071815" free_energy=-418.8074152175889 pbc="T T T"
I        5.68766826      -0.97210630       1.00672651      -0.00000381       0.00000005       0.00000266
I        4.99027708      12.70837953       7.36320209      -0.00000627       0.00000011      -0.00000946
I        6.08080927       9.00522564       4.51911247      -0.00000095       0.00000464      -0.00000613
I        4.59700196       2.73104233       3.85088608      -0.00000118       0.00000526      -0.00000073
I       -0.37896779      11.72436766       7.40718154       0.00000006      -0.00000337      -0.00000393
I       11.05684817       0.01191225       0.96268615      -0.00001137      -0.00000379       0.00000915
I       12.35890263       2.72255935       4.46698173       0.00001037      -0.00000984       0.00000544
I       -1.68107250       9.01375228       3.90300256       0.00001047       0.00000107      -0.00000941
I        8.53776639      12.87446077      10.17323865      -0.00000306       0.00000875       0.00000707
I        2.16761224       6.56949408       4.54608689      -0.00000241      -0.00000732       0.00000517
I        2.15277044      -1.16586975       3.87702498       0.00001616      -0.00000191       0.00000503
I        8.52508737      12.90220633       4.49278276      -0.00001159      -0.00000151       0.00000451
H        2.69161791       1.16539961       1.03262840      -0.00000083       0.00000128       0.00000104
H        6.90450537       3.29316639       0.99825019       0.00000422       0.00000773       0.00000150
H        7.60805456       8.09908043       0.09347186       0.00001915      -0.00000192       0.00001519
H        1.62851433       4.23819025       7.39064976       0.00000336      -0.00000506      -0.00000356
H        3.77333297       8.44331154       7.37155580      -0.00000953      -0.00000579       0.00001345
H        7.49520677       1.85809261       0.09620240       0.00000592      -0.00000469       0.00000358
H        9.46062931       3.59559848       8.22153932      -0.00000584      -0.00001030      -0.00001291
H        3.06953762       3.63749139       8.27649961       0.00000769      -0.00000916       0.00000168
H        1.25064236       1.76629762       0.14683309      -0.00000826       0.00000518      -0.00001604
H        7.51586879       1.86277535       1.89382133       0.00000208       0.00000242       0.00000671
H        7.62559071       8.10148165       1.89111401       0.00000028      -0.00000400      -0.00001048
H        3.05216472       3.63499858       6.47885523      -0.00000129      -0.00000315      -0.00000948
H        1.69982458       3.98579953       1.03754794       0.00000192      -0.00001737      -0.00000071
H        8.97811307       7.75068309       7.33246497      -0.00001646       0.00001796      -0.00000186
H        9.41485746       9.73393833       1.81157027      -0.00000100       0.00001142      -0.00001056
H        2.85298902       9.93141847       0.18511650       0.00000920       0.00000398       0.00000604
H        3.04262790       3.40011067       0.18725139       0.00000620      -0.00001111      -0.00000160
H        7.62050921       8.33494530       6.50515144      -0.00000780      -0.00001119      -0.00001775
H        8.05738298      10.31850238       0.98425234      -0.00000275      -0.00003001      -0.00000616
H        3.44611907       8.58199655       1.01951186      -0.00001819       0.00000494      -0.00000013
H        3.05732700       3.40132988       1.86488449      -0.00000193      -0.00000152       0.00001301
H        9.13100242       3.64872083       0.13299081      -0.00000392      -0.00000787       0.00001611
H        9.40015931       9.73278949       0.13393172      -0.00000651      -0.00001031      -0.00000074
H        2.87121773       9.93332841       1.86301908      -0.00001119       0.00001204       0.00001693
C        3.04990897       9.26461143       7.37791173       0.00003120       0.00000975       0.00001296
C        7.62784224       2.47178923       0.99195573      -0.00000196       0.00001135      -0.00000633
C        9.32804114       2.98187853       7.32579415       0.00001646      -0.00000308       0.00001607
C        2.44943411       3.51434762       7.38380784      -0.00000565       0.00001704       0.00001503
Pb       5.33891488       5.86813839       4.18493178       0.00000253       0.00000589       0.00000375
Pb       5.37861373      12.17583873       4.18432041       0.00000279       0.00000039      -0.00000897
Pb      -0.92214416      12.10713907      10.58634925       0.00000614       0.00000994       0.00000195
Pb      -0.93916184      12.15084847       4.23702626      -0.00000335       0.00000215       0.00000578
N        2.44849733       3.26414316       1.03158988      -0.00001677       0.00003358      -0.00000717
N        8.22935483       8.47225237       7.33841253      -0.00000023      -0.00002748       0.00001100
N        8.80602324       9.59681333       0.97826534      -0.00000981       0.00005424      -0.00000568
N        2.72491515       9.33109197       1.02637535      -0.00002120      -0.00002864      -0.00001772
I        5.89907677       5.44166356       7.35508043       0.00002162       0.00001140       0.00000998
I        4.77873218       6.29457986       1.01477035       0.00000562       0.00000992       0.00000599
I        4.60532171       2.68621748      10.88016137      -0.00000695      -0.00000191      -0.00000347
I        6.07245028       9.05007391      -2.51024213       0.00000091       0.00000733      -0.00001512
I       -0.59048808       5.31064522       1.05877932      -0.00000141      -0.00000746       0.00000887
I       11.26832926       6.42570662       7.31107742      -0.00000144      -0.00000505      -0.00000137
I       10.92872627       9.10629288      -1.87190069       0.00000009       0.00000079       0.00000298
I       -0.25094617       2.62998103      10.24170375      -0.00000060       0.00000942      -0.00000466
I        8.51021631       5.16685376       3.82367186       0.00000266      -0.00000726       0.00000396
I        2.21949187      11.47733028      -1.80456316      -0.00001541      -0.00000201      -0.00001180
I        2.18027954       6.54172826      10.22659349      -0.00000605       0.00000521      -0.00000144
I        8.49754839       5.19458875      -1.85671664       0.00000273       0.00000451      -0.00000368
H        3.18247595       9.87825707       8.27371121       0.00000109      -0.00000608      -0.00001509
H        9.42707386       9.97030225       8.22300933       0.00000872      -0.00000396       0.00000609
H        9.43999156       3.59088515       6.42392071       0.00000174      -0.00000289      -0.00000819
H        1.21705441       8.14094429       0.14821883       0.00001209      -0.00001545      -0.00000701
H        1.26809325       1.76881065       1.94447543       0.00001631      -0.00000924      -0.00001175
H        9.40949607       9.96769487       6.42536428       0.00000087       0.00000596       0.00003327
H        9.04904291       7.49805680       0.97916501       0.00000867       0.00000452      -0.00000309
H        1.23769699       8.14551483       1.94583852       0.00001161       0.00000244       0.00001523
H        3.16182270       9.87370599       6.47609292      -0.00000180      -0.00000762      -0.00000854
H        7.98595638      10.57095982       7.33727976       0.00000908       0.00000214       0.00000929
H       10.05142570       2.16054337       7.31952212      -0.00000554      -0.00000577      -0.00000144
H        0.62645635       9.57600799       1.05034888       0.00001173       0.00000378      -0.00000242
H        1.52862401       8.08559583       6.55889472      -0.00000475       0.00001322       0.00001149
H        9.72423644       2.29936335       0.96741342       0.00000660      -0.00001002       0.00000314
H        7.23164154       3.15419273       7.35031613       0.00000278       0.00000156       0.00000003
H        1.26315570       2.00222561       6.55835781      -0.00001199      -0.00000515      -0.00000779
H        0.95350428       9.43682822       7.40241274       0.00001421      -0.00000611       0.00000714
H        9.14926138       3.65067863       1.81089558       0.00000139       0.00001049       0.00000846
H        7.82493213       1.80486889       8.18474833       0.00001256      -0.00000386      -0.00000620
H        1.27779191       2.00343360       8.23598964      -0.00000752      -0.00000259       0.00001582
H        1.54684595       8.08749636       8.23680127      -0.00000472       0.00001910       0.00000151
H        7.63527209       8.33627214       8.18278484       0.00000248      -0.00001595      -0.00002239
H        7.80669029       1.80290387       6.50684237       0.00001017       0.00000314       0.00001218
H        2.62070696       1.41792592       7.38573806      -0.00003363       0.00001077      -0.00000909
C        1.87080409       1.88936129       1.03949521       0.00000958      -0.00000832       0.00000068
C        8.80686853       9.84710890       7.33039567       0.00000637       0.00000896      -0.00001863
C        8.22826538       8.22205889       0.98611326      -0.00002179      -0.00001642      -0.00000569
C        1.34972951       8.75457444       1.04401143       0.00000319       0.00000940       0.00002015
Pb       5.39565118      12.13218945      10.53366259      -0.00001192      -0.00000047       0.00000682
Pb       5.35592640       5.82444932      10.53425249      -0.00000193       0.00000371       0.00000463
Pb      -0.97886355       5.84312041       4.23765006       0.00000426       0.00000866      -0.00000540
Pb      -0.96184076       5.79943543      10.58696185       0.00000461       0.00000686       0.00000867
N        1.67482768       8.68785014       7.39554661      -0.00002442      -0.00001735      -0.00002985
N        9.00298345       3.04840933       0.97427004      -0.00000039      -0.00000876      -0.00000935
N        7.95293244       2.40518270       7.34346883      -0.00003080       0.00001583      -0.00001026
N        1.87193599       2.13948338       7.39167502       0.00003825      -0.00002019      -0.00000600
