768
Lattice="38.09501687690101 -0.5800936041257604 0.5118936399848942 0.35507650824680453 23.393368195527298 0.06573698255496001 0.4402869469486813 -0.05774903617026543 18.150397699062342" Properties=species:S:1:pos:R:3:forces:R:3 energy=-3664.727208732494 stress="3.195815488986985e-08 1.397970557679825e-09 -4.5817203013357214e-08 1.397970557679825e-09 -2.6570048775642613e-08 -1.7281248700456835e-08 -4.5817203013357214e-08 -1.7281248700456835e-08 2.8817840074768385e-08" free_energy=-3664.727208732494 pbc="T T T"
H        8.03969966      -0.00155765       3.69517017      -0.00000318       0.00000682       0.00002862
H       12.36362469      11.45157583       2.26482994      -0.00000849       0.00000594       0.00000533
H        2.80893094       5.92581236       4.38988452       0.00000630      -0.00000174      -0.00000331
H       17.59460884       5.52428114       1.57024554       0.00000630       0.00001008      -0.00000359
H        7.99617317       2.11926859       7.33458277      -0.00000995       0.00000408      -0.00000040
H       12.51737211       9.31643367       3.16301900       0.00000285       0.00000092       0.00000419
H        4.49833484       5.10091647       7.40187604       0.00000593      -0.00000624       0.00000771
H       16.01510873       6.33482230       3.09585289      -0.00000079       0.00001158       0.00000346
H        5.55603776       0.75525880       5.17091749       0.00001872      -0.00001249      -0.00000264
H       14.01758000       8.95635574       2.30607613      -0.00000504      -0.00001168       0.00000941
H        5.42461595       6.60047683       7.45584862      -0.00000971      -0.00000454       0.00001223
H       15.08879203       4.83528686       3.04175154       0.00002044      -0.00000264       0.00000687
H        6.38595993       2.49380698       3.65399606       0.00000291      -0.00000557      -0.00000843
H       14.84743154      10.69499567       0.78921128      -0.00000933      -0.00000461      -0.00000293
H        4.53778339       8.36946498       4.44487258       0.00001011       0.00000127       0.00000335
H       15.86558547       3.08075141       1.51511519       0.00001599       0.00000907      -0.00000279
H        7.88609117       2.13359580       2.79697958       0.00002452       0.00001645      -0.00001155
H       13.96711947      12.22227290       0.74361576      -0.00000302       0.00000328      -0.00000407
H        3.02732162       8.05024475       5.29999534       0.00000030       0.00000789      -0.00002566
H       16.12516354       6.32038295       7.63336470      -0.00000741      -0.00000747       0.00001475
C        7.20529969       0.64721996       3.97826236       0.00003105       0.00000705      -0.00002154
C       13.19809807      10.80287383       1.98178296       0.00000336       0.00001641      -0.00000569
C        3.66269704       6.55049021       4.11035479      -0.00001268       0.00000918       0.00002303
C       16.74077474       4.89966508       1.84970507      -0.00002161       0.00001008       0.00001100
N        6.33745225       0.17810176       4.84309657       0.00000057      -0.00000223      -0.00000303
N       13.26407741       9.60930811       2.52751048       0.00001102       0.00000968      -0.00002073
N        4.62596002       6.04557697       7.78053121       0.00002026       0.00002037      -0.00000683
N       15.88748691       5.39017840       2.71715348      -0.00000311      -0.00002959      -0.00002142
N        7.13939388       1.84078709       3.43252734      -0.00004818      -0.00001578       0.00002732
N       14.06595458      11.27208034       1.11700480      -0.00001256      -0.00001359       0.00001994
N        3.76481850       7.73843259       4.66274587      -0.00000226      -0.00001367       0.00001173
N       16.63861124       3.71173193       1.29730307      -0.00001671      -0.00000503      -0.00000168
Pb       1.62413416       1.81223223       1.49661321      -0.00000425       0.00000040       0.00000021
Pb      18.77938044       9.63791256       4.46346664      -0.00001067      -0.00000124       0.00000324
Pb       9.16651670       7.54580525       2.06031852      -0.00000121      -0.00000278       0.00000827
Pb      11.23691094       3.90432559       3.89965654       0.00000580       0.00000575       0.00000355
I        0.75757694       3.90961139       3.78368902      -0.00000711       0.00001131       0.00000231
I        0.59839272       7.83058784       1.92042947       0.00000012       0.00000205       0.00000809
I       10.20660437       9.61429450       4.32259815       0.00000342       0.00001108      -0.00001189
I       10.19684300       1.83581557       1.63739200       0.00000528       0.00000110      -0.00000535
I       17.60892595       0.12097799       2.17215618      -0.00000161      -0.00000897       0.00000108
I        2.79457825      11.32917964       3.78793324      -0.00000540       0.00000156       0.00000625
I       12.18529206       6.05462369       1.63265139      -0.00000162      -0.00000689       0.00001110
I        8.21813926       5.39550911       4.32732552       0.00000014       0.00000667      -0.00000443
I        4.43607729       3.13070410       1.25568764      -0.00000004       0.00000695       0.00001065
I       15.96742864       8.31945623       4.70435625       0.00000744       0.00000609       0.00000396
I        6.39589101       8.94770614       2.30897017      -0.00000469       0.00000744      -0.00000005
I       14.00756466       2.50248504       3.65104912      -0.00000220       0.00000079       0.00000342
H        8.14987020      -0.01590908       8.23269441      -0.00000016       0.00001007      -0.00000160
H       12.47369617      11.43720889       6.80234705       0.00000191      -0.00000790       0.00000894
H        2.91893146       5.91147955       8.92758028       0.00000207       0.00001416      -0.00001551
H       17.70464897       5.50984978       6.10773608      -0.00000667      -0.00000089       0.00000395
H        6.43622765      -0.77209482       5.21649204       0.00001186      -0.00001904      -0.00000250
H       12.62740510       9.30209056       7.70060352       0.00000532      -0.00001134       0.00000284
H        4.38838212       5.11538149       2.86416242      -0.00001708      -0.00000380      -0.00001290
H       17.48622868       3.38539301       5.19769249      -0.00000501       0.00000203      -0.00001325
H        6.49602820       2.47939100       8.19161606      -0.00002188       0.00000369      -0.00000294
H       14.12763350       8.94197685       6.84371180      -0.00001329      -0.00000404       0.00001362
H        5.31457945       6.61499755       2.91817886      -0.00000439      -0.00002262       0.00001280
H       15.97571360       3.06625482       6.05275174      -0.00000736       0.00000015       0.00000055
H        5.66617417       0.74073958       9.70846485       0.00000430      -0.00000979      -0.00000798
H       14.95753643      10.68056922       5.32681480       0.00000174      -0.00000686      -0.00000804
H        4.64790355       8.35505119       8.98246422      -0.00000561      -0.00000134      -0.00000416
H       15.19890335       4.82080785       7.57934104      -0.00000521       0.00001064       0.00000928
H        6.54643031      -0.78657497       9.75397749      -0.00001170      -0.00000722       0.00001846
H       14.07723297      12.20785105       5.28115536       0.00000115       0.00001400      -0.00000741
H        3.13742076       8.03594531       9.83759222      -0.00000260      -0.00002377       0.00000504
H       17.37613535       3.39987202       0.66010969       0.00000186      -0.00000498      -0.00000724
C        7.31544069       0.63282214       8.51580466       0.00000421       0.00000414       0.00000747
C       13.30817272      10.78849173       6.51934153       0.00002040       0.00003504      -0.00002007
C        3.77272788       6.53610509       8.64802562      -0.00000698      -0.00000828       0.00000108
C       16.85084544       4.88521273       6.38724302      -0.00001155      -0.00001249       0.00001252
N        7.24948303       1.82640630       7.97011509       0.00001931      -0.00001040      -0.00000729
N       13.37412766       9.59494024       7.06510279       0.00003230      -0.00001925      -0.00001762
N        4.51595106       6.06004201       3.24283749       0.00002967      -0.00000614      -0.00001455
N       16.74870743       3.69725550       5.83488800       0.00001761       0.00000089      -0.00000642
N        6.44761165       0.16363037       9.38061779       0.00000258       0.00001685      -0.00001329
N       14.17605680      11.25766879       5.65457490      -0.00004465      -0.00002967       0.00003220
N        3.87490932       7.72406411       9.20036885       0.00001070       0.00000139      -0.00000196
N       15.99756396       5.37572313       7.25469884       0.00001609       0.00000890      -0.00000443
Pb       1.73420381       1.79781402       6.03421196       0.00000348       0.00000416       0.00000836
Pb      18.88941479       9.62347862       9.00106141       0.00000542      -0.00000145      -0.00000156
Pb       9.27659323       7.53135102       6.59791457      -0.00000365       0.00000796       0.00000354
Pb      11.34700499       3.88988684       8.43726475      -0.00000244      -0.00000101       0.00000613
I        0.86764028       3.89517158       8.32131243       0.00000261       0.00000676      -0.00001316
I        0.70846861       7.81613840       6.45805150      -0.00000496      -0.00000070      -0.00002253
I       10.31666367       9.59986255       8.86019112      -0.00000460       0.00000609      -0.00000823
I       10.30691606       1.82139378       6.17499103       0.00000777      -0.00000062      -0.00000623
I       17.71900077       0.10654682       6.70974967      -0.00000267      -0.00000499      -0.00001762
I        2.90462846      11.31474080       8.32552041       0.00000852       0.00000132       0.00000350
I       12.29536662       6.04017756       6.17025315      -0.00000077      -0.00000313       0.00000469
I        8.32821875       5.38107368       8.86492827       0.00000288       0.00000060       0.00000067
I        4.54613104       3.11632421       5.79328999      -0.00001202       0.00000655      -0.00000024
I       16.07747405       8.30500526       9.24192912       0.00000418      -0.00000140       0.00000363
I        6.50594657       8.93321787       6.84655238      -0.00001055       0.00000405      -0.00000086
I       14.11765404       2.48802958       8.18866683      -0.00000215       0.00000920      -0.00000276
H        8.25984313      -0.03043217      12.77036902      -0.00000318       0.00000682       0.00002862
H       12.58376816      11.42270131      11.34002879      -0.00000849       0.00000594       0.00000533
H        3.02907441       5.89693784      13.46508337       0.00000630      -0.00000174      -0.00000331
H       17.81475231       5.49540662      10.64544439       0.00000630       0.00001008      -0.00000359
H        8.21631664       2.09039407      16.40978162      -0.00000996       0.00000408      -0.00000039
H       12.73751558       9.28755915      12.23821785       0.00000285       0.00000092       0.00000419
H        4.71847831       5.07204195      16.47707489       0.00000594      -0.00000625       0.00000770
H       16.23525220       6.30594778      12.17105174      -0.00000079       0.00001158       0.00000346
H        5.77618123       0.72638428      14.24611634       0.00001872      -0.00001249      -0.00000264
H       14.23772347       8.92748122      11.38127498      -0.00000504      -0.00001168       0.00000941
H        5.64475942       6.57160231      16.53104747      -0.00000971      -0.00000454       0.00001223
H       15.30893550       4.80641234      12.11695039       0.00002044      -0.00000264       0.00000687
H        6.60610340       2.46493246      12.72919491       0.00000291      -0.00000557      -0.00000843
H       15.06757501      10.66612115       9.86441013      -0.00000933      -0.00000461      -0.00000293
H        4.75792686       8.34059046      13.52007143       0.00001011       0.00000127       0.00000335
H       16.08572894       3.05187689      10.59031404       0.00001599       0.00000907      -0.00000280
H        8.10623464       2.10472128      11.87217843       0.00002452       0.00001645      -0.00001155
H       14.18726294      12.19339838       9.81881461      -0.00000302       0.00000328      -0.00000407
H        3.24746509       8.02137023      14.37519419       0.00000030       0.00000789      -0.00002566
H       16.34530701       6.29150843      16.70856355      -0.00000741      -0.00000747       0.00001475
C        7.42544316       0.61834544      13.05346121       0.00003106       0.00000704      -0.00002153
C       13.41824154      10.77399931      11.05698181       0.00000336       0.00001641      -0.00000568
C        3.88284051       6.52161569      13.18555364      -0.00001268       0.00000918       0.00002303
C       16.96091821       4.87079056      10.92490392      -0.00002161       0.00001008       0.00001100
N        6.55759572       0.14922724      13.91829542       0.00000057      -0.00000223      -0.00000303
N       13.48422088       9.58043359      11.60270933       0.00001102       0.00000968      -0.00002073
N        4.84610349       6.01670245      16.85573006       0.00002024       0.00002035      -0.00000683
N       16.10763038       5.36130388      11.79235233      -0.00000311      -0.00002959      -0.00002142
N        7.35953735       1.81191257      12.50772619      -0.00004818      -0.00001578       0.00002732
N       14.28609805      11.24320582      10.19220365      -0.00001256      -0.00001359       0.00001994
N        3.98496197       7.70955807      13.73794472      -0.00000226      -0.00001367       0.00001173
N       16.85875471       3.68285741      10.37250192      -0.00001671      -0.00000503      -0.00000169
Pb       1.84427763       1.78335771      10.57181206      -0.00000425       0.00000040       0.00000021
Pb      18.99952391       9.60903804      13.53866549      -0.00001067      -0.00000125       0.00000324
Pb       9.38666017       7.51693073      11.13551737      -0.00000121      -0.00000278       0.00000826
Pb      11.45705441       3.87545107      12.97485539       0.00000580       0.00000574       0.00000356
I        0.97772041       3.88073687      12.85888787      -0.00000711       0.00001131       0.00000231
I        0.81853619       7.80171332      10.99562832       0.00000012       0.00000205       0.00000809
I       10.42674784       9.58541998      13.39779700       0.00000342       0.00001108      -0.00001189
I       10.41698647       1.80694105      10.71259085       0.00000529       0.00000110      -0.00000535
I       17.82906942       0.09210347      11.24735503      -0.00000161      -0.00000897       0.00000109
I        3.01472172      11.30030512      12.86313209      -0.00000539       0.00000156       0.00000625
I       12.40543553       6.02574917      10.70785024      -0.00000161      -0.00000689       0.00001110
I        8.43828273       5.36663459      13.40252437       0.00000014       0.00000667      -0.00000443
I        4.65622076       3.10182958      10.33088649      -0.00000004       0.00000695       0.00001065
I       16.18757211       8.29058171      13.77955510       0.00000744       0.00000609       0.00000396
I        6.61603448       8.91883162      11.38416902      -0.00000469       0.00000744      -0.00000006
I       14.22770813       2.47361052      12.72624797      -0.00000220       0.00000079       0.00000341
H        8.37001367      -0.04478360      17.30789326      -0.00000015       0.00001008      -0.00000162
H       12.69383964      11.40833437      15.87754590       0.00000191      -0.00000790       0.00000894
H        3.13907493       5.88260503      18.00277913       0.00000207       0.00001418      -0.00001549
H       17.92479244       5.48097526      15.18293493      -0.00000667      -0.00000089       0.00000395
H        6.65637112      -0.80096934      14.29169089       0.00001186      -0.00001904      -0.00000250
H       12.84754857       9.27321604      16.77580237       0.00000532      -0.00001134       0.00000284
H        4.60852559       5.08650697      11.93936127      -0.00001708      -0.00000380      -0.00001290
H       17.70637215       3.35651849      14.27289134      -0.00000501       0.00000203      -0.00001325
H        6.71617167       2.45051648      17.26681491      -0.00002188       0.00000369      -0.00000294
H       14.34777697       8.91310233      15.91891065      -0.00001329      -0.00000404       0.00001362
H        5.53472292       6.58612303      11.99337771      -0.00000439      -0.00002262       0.00001280
H       16.19585707       3.03738030      15.12795059      -0.00000736       0.00000015       0.00000055
H        5.88631765       0.71186506      18.78366370       0.00000429      -0.00000979      -0.00000798
H       15.17767990      10.65169470      14.40201365       0.00000174      -0.00000686      -0.00000804
H        4.86804702       8.32617667      18.05766307      -0.00000537      -0.00000117      -0.00000424
H       15.41904682       4.79193333      16.65453989      -0.00000521       0.00001064       0.00000928
H        6.76657378      -0.81544949      18.82917634      -0.00001170      -0.00000693       0.00001835
H       14.29737644      12.17897653      14.35635421       0.00000115       0.00001400      -0.00000741
H        3.35756424       8.00707079      18.91279107      -0.00000260      -0.00002376       0.00000504
H       17.59627882       3.37099750       9.73530854       0.00000186      -0.00000498      -0.00000724
C        7.53558416       0.60394762      17.59100351       0.00000445       0.00000421       0.00000729
C       13.52831619      10.75961721      15.59454038       0.00002040       0.00003504      -0.00002007
C        3.99287135       6.50723057      17.72322447      -0.00000689      -0.00000811       0.00000111
C       17.07098891       4.85633821      15.46244187      -0.00001155      -0.00001249       0.00001252
N        7.46962650       1.79753178      17.04531394       0.00001932      -0.00001037      -0.00000732
N       13.59427113       9.56606572      16.14030164       0.00003230      -0.00001925      -0.00001762
N        4.73609453       6.03116749      12.31803634       0.00002967      -0.00000614      -0.00001455
N       16.96885090       3.66838098      14.91008685       0.00001761       0.00000089      -0.00000642
N        6.66775513       0.13475585      18.45581664       0.00000234       0.00001644      -0.00001295
N       14.39620027      11.22879427      14.72977375      -0.00004465      -0.00002967       0.00003220
N        4.09505280       7.69518959      18.27556770       0.00001038       0.00000103      -0.00000193
N       16.21770743       5.34684861      16.32989769       0.00001609       0.00000890      -0.00000443
Pb       1.95434728       1.76893950      15.10941081       0.00000348       0.00000415       0.00000836
Pb      19.10955826       9.59460410      18.07626026       0.00000542      -0.00000145      -0.00000156
Pb       9.49673670       7.50247650      15.67311342      -0.00000365       0.00000795       0.00000354
Pb      11.56714846       3.86101232      17.51246360      -0.00000244      -0.00000100       0.00000613
I        1.08778375       3.86629706      17.39651128       0.00000262       0.00000676      -0.00001317
I        0.92861208       7.78726388      15.53325035      -0.00000496      -0.00000070      -0.00002253
I       10.53680714       9.57098803      17.93538997      -0.00000459       0.00000610      -0.00000823
I       10.52705953       1.79251926      15.25018988       0.00000778      -0.00000062      -0.00000623
I       17.93914424       0.07767230      15.78494852      -0.00000266      -0.00000499      -0.00001762
I        3.12477193      11.28586628      17.40071926       0.00000852       0.00000132       0.00000351
I       12.51551009       6.01130304      15.24545200      -0.00000076      -0.00000313       0.00000469
I        8.54836222       5.35219916      17.94012712       0.00000288       0.00000060       0.00000067
I        4.76627451       3.08744969      14.86848884      -0.00001203       0.00000655      -0.00000024
I       16.29761752       8.27613074      18.31712797       0.00000418      -0.00000140       0.00000363
I        6.72609004       8.90434335      15.92175123      -0.00001055       0.00000405      -0.00000086
I       14.33779751       2.45915506      17.26386568      -0.00000214       0.00000921      -0.00000276
H        8.21723791      11.69512645       3.72803866      -0.00000318       0.00000682       0.00002862
H       12.54116294      23.14825993       2.29769843      -0.00000849       0.00000594       0.00000533
H        2.98646919      17.62249646       4.42275301       0.00000630      -0.00000174      -0.00000331
H       17.77214709      17.22096524       1.60311403       0.00000630       0.00001008      -0.00000359
H        8.17371142      13.81595269       7.36745126      -0.00000996       0.00000408      -0.00000040
H       12.69491036      21.01311777       3.19588749       0.00000285       0.00000092       0.00000419
H        4.67587309      16.79760057       7.43474453       0.00000593      -0.00000624       0.00000771
H       16.19264698      18.03150640       3.12872138      -0.00000079       0.00001158       0.00000346
H        5.73357601      12.45194290       5.20378598       0.00001872      -0.00001249      -0.00000264
H       14.19511825      20.65303984       2.33894462      -0.00000504      -0.00001168       0.00000941
H        5.60215420      18.29716093       7.48871711      -0.00000971      -0.00000454       0.00001223
H       15.26633028      16.53197096       3.07462003       0.00002044      -0.00000264       0.00000687
H        6.56349818      14.19049108       3.68686455       0.00000291      -0.00000557      -0.00000843
H       15.02496979      22.39167977       0.82207977      -0.00000933      -0.00000463      -0.00000292
H        4.71532164      20.06614908       4.47774107       0.00001011       0.00000127       0.00000335
H       16.04312372      14.77743551       1.54798368       0.00001599       0.00000907      -0.00000280
H        8.06362942      13.83027990       2.82984807       0.00002452       0.00001645      -0.00001155
H       14.14465773      23.91895700       0.77648425      -0.00000308       0.00000349      -0.00000413
H        3.20485987      19.74692885       5.33286383       0.00000030       0.00000789      -0.00002566
H       16.30270179      18.01706705       7.66623319      -0.00000741      -0.00000747       0.00001475
C        7.38283794      12.34390406       4.01113085       0.00003105       0.00000703      -0.00002153
C       13.37563632      22.49955793       2.01465145       0.00000335       0.00001642      -0.00000568
C        3.84023529      18.24717431       4.14322328      -0.00001268       0.00000918       0.00002303
C       16.91831299      16.59634918       1.88257356      -0.00002161       0.00001008       0.00001100
N        6.51499050      11.87478586       4.87596506       0.00000058      -0.00000240      -0.00000296
N       13.44161566      21.30599221       2.56037897       0.00001102       0.00000968      -0.00002074
N        4.80349827      17.74226107       7.81339970       0.00002026       0.00002037      -0.00000683
N       16.06502516      17.08686250       2.75002197      -0.00000311      -0.00002959      -0.00002142
N        7.31693213      13.53747119       3.46539583      -0.00004818      -0.00001578       0.00002732
N       14.24349283      22.96876444       1.14987329      -0.00001249      -0.00001382       0.00002000
N        3.94235675      19.43511669       4.69561436      -0.00000226      -0.00001367       0.00001173
N       16.81614949      15.40841603       1.33017156      -0.00001670      -0.00000503      -0.00000169
Pb       1.80167241      13.50891633       1.52948170      -0.00000425       0.00000039       0.00000021
Pb      18.95691869      21.33459666       4.49633513      -0.00001067      -0.00000125       0.00000324
Pb       9.34405495      19.24248935       2.09318701      -0.00000120      -0.00000278       0.00000826
Pb      11.41444919      15.60100969       3.93252503       0.00000580       0.00000575       0.00000356
I        0.93511519      15.60629549       3.81655751      -0.00000711       0.00001131       0.00000231
I        0.77593097      19.52727194       1.95329796       0.00000012       0.00000205       0.00000809
I       10.38414262      21.31097860       4.35546664       0.00000343       0.00001108      -0.00001189
I       10.37438125      13.53249967       1.67026049       0.00000529       0.00000110      -0.00000535
I       17.78646420      11.81766209       2.20502467      -0.00000160      -0.00000898       0.00000109
I        2.97211650      23.02586374       3.82080173      -0.00000539       0.00000155       0.00000626
I       12.36283031      17.75130779       1.66551988      -0.00000161      -0.00000689       0.00001110
I        8.39567751      17.09219321       4.36019401       0.00000014       0.00000667      -0.00000443
I        4.61361554      14.82738820       1.28855613      -0.00000004       0.00000695       0.00001065
I       16.14496689      20.01614033       4.73722474       0.00000744       0.00000609       0.00000396
I        6.57342926      20.64439024       2.34183866      -0.00000469       0.00000744      -0.00000005
I       14.18510291      14.19916914       3.68391761      -0.00000220       0.00000078       0.00000342
H        8.32740845      11.68077502       8.26556290      -0.00000016       0.00001007      -0.00000160
H       12.65123442      23.13389299       6.83521554       0.00000191      -0.00000789       0.00000894
H        3.09646971      17.60816365       8.96044877       0.00000207       0.00001416      -0.00001551
H       17.88218722      17.20653388       6.14060457      -0.00000667      -0.00000089       0.00000395
H        6.61376590      10.92458928       5.24936053       0.00001186      -0.00001887      -0.00000257
H       12.80494335      20.99877466       7.73347201       0.00000532      -0.00001134       0.00000284
H        4.56592037      16.81206559       2.89703091      -0.00001708      -0.00000380      -0.00001290
H       17.66376693      15.08207711       5.23056098      -0.00000501       0.00000203      -0.00001325
H        6.67356645      14.17607510       8.22448455      -0.00002188       0.00000369      -0.00000294
H       14.30517175      20.63866095       6.87658029      -0.00001329      -0.00000404       0.00001362
H        5.49211770      18.31168165       2.95104735      -0.00000439      -0.00002262       0.00001280
H       16.15325185      14.76293892       6.08562023      -0.00000736       0.00000015       0.00000055
H        5.84371242      12.43742368       9.74133334       0.00000430      -0.00000979      -0.00000798
H       15.13507468      22.37725332       5.35968329       0.00000174      -0.00000688      -0.00000803
H        4.82544180      20.05173529       9.01533271      -0.00000561      -0.00000134      -0.00000416
H       15.37644160      16.51749195       7.61220953      -0.00000521       0.00001064       0.00000928
H        6.72396856      10.91010913       9.78684598      -0.00001170      -0.00000704       0.00001839
H       14.25477123      23.90453515       5.31402385       0.00000109       0.00001421      -0.00000747
H        3.31495901      19.73262941       9.87046071      -0.00000261      -0.00002377       0.00000505
H       17.55367360      15.09655612       0.69297818       0.00000186      -0.00000498      -0.00000724
C        7.49297894      12.32950624       8.54867315       0.00000421       0.00000412       0.00000748
C       13.48571097      22.48517583       6.55221002       0.00002040       0.00003505      -0.00002007
C        3.95026613      18.23278919       8.68089411      -0.00000698      -0.00000828       0.00000108
C       17.02838369      16.58189683       6.42011151      -0.00001155      -0.00001249       0.00001252
N        7.42702128      13.52309040       8.00298358       0.00001931      -0.00001040      -0.00000729
N       13.55166591      21.29162434       7.09797128       0.00003230      -0.00001925      -0.00001762
N        4.69348931      17.75672611       3.27570598       0.00002967      -0.00000614      -0.00001455
N       16.92624568      15.39393960       5.86775649       0.00001761       0.00000089      -0.00000642
N        6.62514990      11.86031447       9.41348628       0.00000259       0.00001668      -0.00001322
N       14.35359505      22.95435289       5.68744339      -0.00004459      -0.00002989       0.00003227
N        4.05244757      19.42074821       9.23323734       0.00001072       0.00000139      -0.00000197
N       16.17510221      17.07240723       7.28756733       0.00001609       0.00000890      -0.00000443
Pb       1.91174206      13.49449812       6.06708045       0.00000348       0.00000415       0.00000836
Pb      19.06695304      21.32016272       9.03392990       0.00000542      -0.00000146      -0.00000155
Pb       9.45413148      19.22803512       6.63078306      -0.00000365       0.00000795       0.00000354
Pb      11.52454324      15.58657094       8.47013324      -0.00000244      -0.00000100       0.00000613
I        1.04517853      15.59185568       8.35418092       0.00000262       0.00000675      -0.00001317
I        0.88600686      19.51282250       6.49091999      -0.00000496      -0.00000070      -0.00002253
I       10.49420192      21.29654665       8.89305961      -0.00000459       0.00000609      -0.00000823
I       10.48445431      13.51807788       6.20785952       0.00000777      -0.00000062      -0.00000623