768
Lattice="25.79489961471896 0.0224340876846623 -0.0289842175183287 0.013932298117281097 25.84861609414108 -0.014523411134813783 0.055831912146677896 0.13217485953520758 25.7471695615935" Properties=species:S:1:pos:R:3:forces:R:3 energy=-3655.1161043223756 stress="0.005161784818195943 0.0001044536205417557 0.00012145453753140167 0.0001044536205417557 0.005155107750042485 0.00016642185804658833 0.00012145453753140167 0.00016642185804658833 0.00379945124847887" free_energy=-3655.1161043223756 pbc="T T T"
H        6.79333876      14.98049982      -0.58401850      -0.00000115       0.00001337      -0.00002677
H        6.17896355       9.37092407      -0.50528580      -0.00000401       0.00000842      -0.00000657
H        6.08598535       9.34863245       8.54354604       0.00000383       0.00001339       0.00000102
H        6.80470618      15.04573570       8.57655501       0.00001218      -0.00000324      -0.00000630
H        5.01745266      16.34310604      -0.00410894      -0.00000133       0.00001520      -0.00002247
H        7.88748945       9.64233626       1.05230987       0.00001091       0.00001395       0.00000492
H       26.95416856      14.26438342       7.93888463       0.00000927      -0.00000226      -0.00000527
H        7.47221788      13.25807370       7.24448793      -0.00003408       0.00001265      -0.00001712
H       25.19629049       7.01329523       1.93693681      -0.00000328       0.00000282      -0.00000020
H       24.09291396      14.97918911       2.06808766       0.00000173      -0.00000398       0.00000661
H       26.14133927      13.82570319       6.44215649       0.00000580      -0.00000556      -0.00001225
H        6.22431555      13.51705103       6.06211452      -0.00000995      -0.00000159      -0.00000468
H       26.74578106       8.98161348       1.49068202      -0.00000011      -0.00000284       0.00000830
H       26.20986427      13.77980141       1.40827606      -0.00000319      -0.00001167       0.00001069
H       23.99043620      15.07058088       5.96711928       0.00001287       0.00001411       0.00000902
H       26.05352018       9.79012746       8.09988215      -0.00000174      -0.00000020      -0.00000062
H        7.45916550      13.22098829       0.78669804      -0.00000328      -0.00000122       0.00001015
H       26.91104113      14.26191382      -0.13134111      -0.00000118       0.00000786       0.00000246
H        7.91487145       9.76748503       7.16160040      -0.00001720      -0.00002443      -0.00001157
H       26.94740614       9.44736816       6.63216543      -0.00001134       0.00000858       0.00000839
C        6.24922393      14.78783274       0.34540208      -0.00004147       0.00003245       0.00001177
C       25.21374322      15.23525058       0.36061506       0.00001211      -0.00001191      -0.00001389
C       25.24700099      15.27666466       7.58816487       0.00001798      -0.00001460      -0.00002113
C       25.33375229       8.26840541       6.91460614       0.00003521       0.00003401       0.00001071
N       24.76133324       7.30150098       1.05651274       0.00000927       0.00003032      -0.00002054
N       24.21175976      15.46453246       1.17766344      -0.00000406       0.00001957      -0.00000348
N       26.17217381      14.39170051       7.29511921      -0.00003547       0.00001327       0.00002526
N        6.66345070      13.80531764       6.93966414       0.00003946      -0.00002012       0.00001314
N       26.18905163       9.09665369       0.63642115       0.00002662       0.00003282      -0.00001133
N       26.17254920      14.36180743       0.56776209       0.00000432      -0.00000407      -0.00001795
N        7.25146552       9.04298092       6.87376674       0.00001978       0.00002198       0.00001981
N       26.16130882       9.23346888       7.24475336      -0.00000535      -0.00001739      -0.00000384
Pb       2.57703932       5.29841558      10.43521690       0.00000120      -0.00000778       0.00000252
Pb      21.92280652       5.28492191      10.44785834      -0.00000520       0.00001154      -0.00000256
Pb       2.94699437      11.79899790       3.96178386       0.00000674       0.00000186      -0.00001583
Pb       2.72120117       5.34275903       4.00013724       0.00000021      -0.00001248       0.00000756
I        5.76840380       4.83185225      10.43971240       0.00000651       0.00000853       0.00000005
I       25.12234370      18.23345057      10.42922070       0.00000220       0.00000422       0.00000868
I       25.19489624       5.14561661       4.05680266       0.00000876      -0.00000819      -0.00000076
I        5.85627982       6.25139911       3.96530225      -0.00000371       0.00000381       0.00000546
I        2.43406580      14.91170456      10.39120873      -0.00000656       0.00000060       0.00000094
I        3.20865421       8.52203589      23.25636605      -0.00000279       0.00001897       0.00000775
I        2.16217889       8.64858758       3.94732378       0.00000365      -0.00000319      -0.00000664
I        3.59897401      15.10365540       3.99308328      -0.00001104       0.00000107      -0.00000288
I        2.50933549      18.19595009       0.79219700      -0.00000950       0.00000210       0.00000246
I       21.71923694       5.23010992       0.78499272       0.00000184       0.00001012      -0.00001072
I       21.69439378       5.30449797       7.21044507       0.00000561      -0.00000005      -0.00000585
I        2.53195546       5.31682174       7.21739740       0.00000258      -0.00000207       0.00000522
H       24.63430421       8.52796597      -0.59153560      -0.00000512      -0.00001169       0.00000371
H       25.25264117      15.82234733      -0.56230532      -0.00000279       0.00000058       0.00000984
H       25.36591215      15.84598141       8.51495492       0.00000295       0.00000890       0.00001188
H       25.53216546       7.72943822       5.98405796      -0.00000544      -0.00000780      -0.00001654
H       23.94958203       6.75766995       0.75281364      -0.00000582       0.00000011       0.00000920
H       23.51191712      16.17414598       0.94184109       0.00000573      -0.00000915       0.00001531
H        4.49242525       7.76562476       7.96840317      -0.00001041      -0.00000547       0.00000421
H       23.69456444       7.13147918       7.29403687       0.00000804       0.00000392      -0.00000348
H        4.69504792      15.48871779       1.49689697      -0.00000124       0.00000831       0.00000287
H        7.23705719       8.43735995       2.13514839       0.00000717       0.00001649      -0.00000532
H        5.29921213       7.33831768       6.46574623      -0.00000553      -0.00000411       0.00000660
H       24.01311077       8.33698395       8.50107197      -0.00000095      -0.00000626      -0.00000928
H        6.21703219      13.51160715       1.96660443       0.00000789       0.00000072       0.00000060
H        5.11684269       7.31474100       1.39365657       0.00000490      -0.00000006       0.00000924
H        7.44254386       8.57950738       5.98356358      -0.00000197      -0.00001188      -0.00001993
H        4.70229253      15.50029540       6.48757720      -0.00000073      -0.00000222      -0.00001105
H       26.43054345       9.85806547       0.00310522       0.00000157      -0.00001121       0.00000431
H        4.46903009       7.84707897      -0.15268129       0.00001329       0.00000385      -0.00000232
H       23.52769868      16.26039113       7.14618078       0.00000405      -0.00000444       0.00001888
H        5.01985876      16.38888428       7.96800919       0.00000698       0.00000625       0.00001225
C       25.17717779       8.31538262       0.33419815      -0.00002144      -0.00004293       0.00001378
C        6.17811611       8.76418781       0.40548047      -0.00004127      -0.00003664       0.00000067
C        6.19825444       8.78243296       7.61403526      -0.00001896      -0.00000360       0.00000285
C        6.25958950      14.83067273       7.65276690      -0.00000485       0.00000948       0.00002936
N        5.24766876      15.58515088       0.63867267       0.00004695      -0.00004010      -0.00001094
N        7.16429058       8.94649739       1.25346426      -0.00000128      -0.00002016       0.00002291
N        5.27126136       7.89950042       7.32218398       0.00002747       0.00000625      -0.00003602
N       24.28725600       7.89996892       7.61708666      -0.00001543      -0.00000330       0.00002742
N        6.65381429      13.77901040       1.08143339       0.00001389      -0.00000728       0.00002779
N        5.19033291       7.91419999       0.56888059       0.00001117       0.00001140      -0.00001362
N       24.18920356      15.53558780       6.85497496      -0.00001413      -0.00001079      -0.00001986
N        5.25585776      15.61886350       7.34242710      -0.00000588      -0.00001184      -0.00002161
Pb      22.38121549      11.77219219      10.44533912       0.00000533      -0.00001429       0.00000278
Pb       3.03235144      11.75350186      10.40218451       0.00000319       0.00000714      -0.00000187
Pb      22.00298959       5.35591862       4.01187151      -0.00000802       0.00000022       0.00000553
Pb      22.37193893      11.81518668       4.00623888      -0.00000429       0.00000270      -0.00000373
I       25.63227173      11.24353434      10.38670040      -0.00000214      -0.00000174       0.00000396
I        6.29137613      11.77642730      10.41474438       0.00000621       0.00000266       0.00000670
I        6.25684276      11.53531137       4.01330387       0.00000346       0.00000225      -0.00000409
I       25.59825363      12.70068217       3.95493961       0.00000213       0.00000844       0.00000202
I       22.07584007       8.53558811      10.51648747      -0.00000430      -0.00001546      -0.00000591
I       22.23412160      15.05680540      23.31066719      -0.00001217       0.00000017      -0.00001016
I       21.85481139      15.00973619       4.01326278      -0.00000406       0.00000237       0.00000047
I       22.52263836       8.55291511       4.04042503      -0.00000216      -0.00000098      -0.00000354
I        9.66320144      11.66028961       0.80523099      -0.00000215      -0.00000570      -0.00000360
I        3.09684210      11.74420741       0.74912162       0.00000065      -0.00000233       0.00000256
I        3.12442737      11.76348962       7.16837012       0.00000382       0.00000063       0.00000422
I       22.61771528      11.75750295       7.22780696       0.00000514       0.00000227       0.00000253
H        6.82126848      15.04664032      12.28958850      -0.00000905       0.00000846      -0.00001090
H        6.20686498       9.43703095      12.36827345      -0.00000347      -0.00000360      -0.00000347
H        6.11393964       9.41476021      21.41711753      -0.00000059       0.00001544       0.00000766
H        6.83268036      15.11187354      21.45010014       0.00000891      -0.00001611      -0.00000164
H        5.04536199      16.40922342      12.86948275      -0.00001321       0.00001523      -0.00002670
H        7.91540161       9.70846433      13.92585166      -0.00000350      -0.00000823       0.00000474
H       26.98210867      14.33050544      20.81246882       0.00001155      -0.00000231       0.00000723
H        7.50016881      13.32420626      20.11802734      -0.00001029      -0.00000397      -0.00001690
H       25.22422653       7.07942595      14.81056927       0.00000906      -0.00000286       0.00001714
H       24.12082399      15.04528439      14.94165236       0.00000621       0.00000958      -0.00000978
H       26.16929005      13.89182247      19.31573637      -0.00000207      -0.00000967      -0.00001337
H        6.25221867      13.58315478      18.93569702      -0.00000593      -0.00000787      -0.00001371
H       26.77369700       9.04774170      14.36422165      -0.00001340       0.00000047      -0.00000640
H       26.23774836      13.84583914      14.28187220       0.00001630      -0.00001730       0.00001064
H       24.01838948      15.13669152      18.84068433      -0.00000009       0.00001141       0.00000907
H       26.08142900       9.85624077      20.97349254      -0.00000577      -0.00000256       0.00000932
H        7.48710065      13.28713048      13.66031002      -0.00002308       0.00001574       0.00000797
H       26.93896325      14.32792626      12.74226381       0.00000635       0.00001310      -0.00000510
H        7.94278849       9.83357530      20.03511341      -0.00001362      -0.00000967      -0.00000660
H       26.97531391       9.51348780      19.50577488      -0.00000840       0.00000595       0.00000913
C        6.27714492      14.85396361      13.21900277       0.00001251      -0.00000908      -0.00000837
C       25.24168713      15.30131478      13.23419543       0.00001322       0.00000349      -0.00001300
C       25.27493813      15.34277851      20.46174035       0.00000792      -0.00001009       0.00000785
C       25.36166423       8.33451794      19.78821414       0.00006733       0.00004631      -0.00001120
N       24.78925346       7.36759810      13.93014349      -0.00002058      -0.00002171       0.00000429
N       24.23970009      15.53062688      14.05123091      -0.00001611       0.00001045       0.00000373
N       26.20011529      14.45781736      20.16870092      -0.00001134       0.00001187       0.00001191
N        6.69138637      13.87143877      19.81322434       0.00000251       0.00000471       0.00002647
N       26.21695145       9.16274838      13.50996670      -0.00001788      -0.00002258      -0.00001632
N       26.20046470      14.42784353      13.44135531      -0.00003155      -0.00000044       0.00000084
N        7.27936700       9.10907413      19.74730855       0.00001711      -0.00002006      -0.00002014
N       26.18921959       9.29958215      20.11836418      -0.00002089      -0.00003090      -0.00002122
Pb       2.60495517       5.36450217      23.30880440      -0.00000032      -0.00000511       0.00000253
Pb      21.95071712       5.35102756      23.32144494      -0.00001761       0.00000675       0.00000211
Pb       2.97490881      11.86508998      16.83536362       0.00000042       0.00000716      -0.00000536
Pb       2.74910154       5.40886166      16.87371861      -0.00000097      -0.00000055       0.00001059
I        5.79631609       4.89794542      23.31330994       0.00000983       0.00000383      -0.00000184
I       25.15027440      18.29958312      23.30280845       0.00000882      -0.00000494       0.00000875
I       25.22281199       5.21166516      16.93041409       0.00001059       0.00000576      -0.00000308
I        5.88418207       6.31752266      16.83889944       0.00000499      -0.00000233       0.00000402
I        2.46198663      14.97780564      23.26479725      -0.00000195       0.00000149      -0.00000200
I        3.18074644       8.45594559      10.38275845      -0.00000131       0.00000637       0.00001253
I        2.19005125       8.71468618      16.82089685       0.00000095      -0.00001492      -0.00000334
I        3.62688335      15.16974524      16.86668064      -0.00001567       0.00000072      -0.00000745
I        2.53722579      18.26204303      13.66578127      -0.00000821      -0.00000317       0.00000552
I       21.74720052       5.29616753      13.65857969      -0.00000339       0.00000761       0.00000746
I       21.72231225       5.37060723      20.08403518       0.00000069      -0.00000173       0.00000200
I        2.55988228       5.38291049      20.09098206       0.00000164       0.00000145       0.00001357
H       24.66219103       8.59400078      12.28205331      -0.00000716      -0.00000817       0.00000241
H       25.28061342      15.88841196      12.31127682       0.00000128      -0.00000111      -0.00000362
H       25.39383997      15.91209415      21.38853270       0.00000254       0.00000213      -0.00000101
H       25.56007860       7.79555458      18.85766349      -0.00000402      -0.00000061      -0.00000302
H       23.97750318       6.82374751      13.62647398       0.00000446      -0.00000056       0.00000166
H       23.53987722      16.24025598      13.81539625       0.00000342      -0.00001459       0.00002316
H        4.52035311       7.83175185      20.84205254       0.00000779      -0.00000226      -0.00001203
H       23.72247973       7.19758762      20.16763746      -0.00000403      -0.00000860      -0.00000205
H        4.72294711      15.55482530      14.37048140       0.00000288       0.00001255       0.00000032
H        7.26499644       8.50348316      15.00869819       0.00000428      -0.00000289       0.00001388
H        5.32709566       7.40440893      19.33938100      -0.00000611      -0.00000800      -0.00000965
H       24.04101998       8.40308815      21.37467866      -0.00000260      -0.00000564      -0.00000184
H        6.24494884      13.57773433      14.84020108       0.00000813      -0.00000234       0.00000516
H        5.14477083       7.38084879      14.26723272       0.00001137      -0.00000401       0.00000370
H        7.47041333       8.64558066      18.85710852      -0.00000036       0.00000624       0.00000406
H        4.73017679      15.56637542      19.36120161      -0.00001215      -0.00000409      -0.00003629
H       26.45842230       9.92413836      12.87661650       0.00001105      -0.00000039       0.00000681
H        4.49694958       7.91317333      12.72089339       0.00001105       0.00000121       0.00001125
H       23.55563320      16.32649567      20.01974734       0.00000911      -0.00001508       0.00000538
H        5.04777973      16.45497842      20.84161697       0.00001548      -0.00000509       0.00000358
C       25.20507978       8.38145576      13.20778703       0.00003814       0.00004020      -0.00000852
C        6.20603106       8.83029525      13.27904064      -0.00000614      -0.00000201      -0.00000585
C        6.22617749       8.84854367      20.48761355      -0.00002244      -0.00000559       0.00001638
C        6.28753146      14.89679041      20.52633565      -0.00004067       0.00004269       0.00002562
N        5.27557593      15.65126656      13.51226305       0.00001271      -0.00000804       0.00000861
N        7.19221459       9.01261405      14.12701227      -0.00000072       0.00001709       0.00000913
N        5.29917154       7.96560979      20.19580664       0.00000987       0.00001227      -0.00000474
N       24.31516900       7.96607639      20.49069282      -0.00001088       0.00000329       0.00002302
N        6.68173967      13.84514460      13.95503665       0.00002174      -0.00002388       0.00001388
N        5.21825514       7.98030226      13.44245204      -0.00001435      -0.00000932      -0.00001290
N       24.21714487      15.60169727      19.72854314      -0.00001881       0.00001078      -0.00001166
N        5.28376912      15.68495740      20.21603091       0.00003779      -0.00002277       0.00000848
Pb      22.40914264      11.83829291      23.31893230      -0.00000206      -0.00000587      -0.00000508
Pb       3.06027246      11.81960020      23.27576813      -0.00000037       0.00000947       0.00001450
Pb      22.03090266       5.42197102      16.88547253      -0.00000242       0.00000756      -0.00000520
Pb      22.39986719      11.88126210      16.87981698      -0.00000640       0.00001291       0.00001119
I       25.66019229      11.30964133      23.26031880      -0.00001346      -0.00000543      -0.00000246
I        6.31928924      11.84253053      23.28834083       0.00000306       0.00000455       0.00000255
I        6.28475437      11.60141477      16.88688341       0.00000510      -0.00000363      -0.00000865
I       25.62618007      12.76678051      16.82854036      -0.00000326       0.00000264      -0.00000078
I       22.10376460       8.60168509      23.39008466      -0.00000695       0.00000531      -0.00000458
I       22.20616602      14.99069388      10.43706117      -0.00000690       0.00001874      -0.00000780
I       21.88275089      15.07581592      16.88683623       0.00000352      -0.00000596       0.00000066
I       22.55053794       8.61898871      16.91403216      -0.00000232      -0.00000336      -0.00000109
I        9.69111921      11.72642032      13.67881371      -0.00000223      -0.00001097       0.00000162
I        3.12475669      11.81026854      13.62270440       0.00001045       0.00000547       0.00000090
I        3.15235366      11.82959026      20.04195654       0.00000235      -0.00000405      -0.00000366
I       22.64564936      11.82363782      20.10139659       0.00000323      -0.00000705      -0.00001073
H        6.78643277       2.05614947      -0.57675539      -0.00001275       0.00001252      -0.00001506
H        6.18599095      22.29522317      -0.51252373      -0.00000402       0.00001495      -0.00001144
H        6.09301754      22.27297730       8.53628306       0.00000312       0.00001451       0.00000966
H        6.79771606       2.12149675       8.58379282       0.00000390      -0.00001437      -0.00000930
H        5.01054305       3.41879802       0.00302822       0.00000072      -0.00001460       0.00000396
H        7.89449481      22.56659389       1.04509999      -0.00000162      -0.00000193       0.00000870
H       26.94724046       1.34013420       7.94611188       0.00000791      -0.00000429       0.00000157
H        7.46527841       0.33378711       7.25180588      -0.00001731       0.00001293      -0.00001009
H       25.20326745      19.93765135       1.92973359      -0.00001212      -0.00000651      -0.00000426
H       24.08599255       2.05484365       2.07533415      -0.00000217       0.00000370       0.00000845
H       26.13441829       0.90145283       6.44937996      -0.00000560      -0.00000670       0.00000093
H        6.21739442       0.59270126       6.06940123      -0.00000180       0.00000605       0.00001351
H       26.75276555      21.90594366       1.48342699      -0.00000128      -0.00000249       0.00000431
H       26.20294544       0.85548507       1.41548740      -0.00000069      -0.00001571       0.00001774
H       23.98350857       2.14632049       5.97433952       0.00000758      -0.00000066      -0.00000161
H       26.06051381      22.71445744       8.09260762       0.00000181      -0.00000368       0.00000026
H        7.45219424       0.29669029       0.79405764      -0.00001500       0.00000196       0.00000392
H       26.90410225       1.33762370      -0.12413081       0.00000889       0.00000384      -0.00000065
H        7.92185943      22.69177415       7.15425979      -0.00001449      -0.00001756       0.00000737
H       26.95439023      22.37167694       6.62488951      -0.00001655      -0.00000059       0.00000768
C        6.24228065       1.86352683       0.35265348       0.00001434      -0.00000517      -0.00000690
C       25.20680232       2.31093926       0.36785566      -0.00001865       0.00002404       0.00000828
C       25.24006745       2.35240588       7.59538955       0.00001099      -0.00001229      -0.00000580
C       25.34074782      21.19270702       6.90737119       0.00000272      -0.00000681      -0.00001228
N       24.76830957      20.22583288       1.04930232       0.00000130      -0.00000783       0.00001767
N       24.20482404       2.54020269       1.18491674       0.00002825      -0.00000244      -0.00002799
N       26.16524469       1.46744557       7.30234619      -0.00001996       0.00001350       0.00000206
N        6.65651155       0.88101083       6.94694713       0.00000639      -0.00000756      -0.00000471
N       26.19603792      22.02096565       0.62916220       0.00001596      -0.00000064       0.00000809
N       26.16561720       1.43750149       0.57498189      -0.00000130      -0.00000950      -0.00002348
N        7.25844321      21.96725876       6.86647796       0.00001210      -0.00000397      -0.00001113
N       26.16830055      22.15778273       7.23748933      -0.00000161       0.00002154       0.00002695
Pb       2.58399996      18.22270564      10.42798243      -0.00000362      -0.00000101       0.00000745
Pb      21.92975594      18.20923561      10.44061150      -0.00000775      -0.00000099       0.00000895
Pb       2.95396654      24.72330929       3.95450962       0.00000562       0.00001034      -0.00000271
Pb       2.72816235      18.26705610       3.99290703       0.00000358      -0.00000249       0.00000616
I        5.77536570      17.75615023      10.43249977      -0.00000622       0.00000628      -0.00000125
I       25.11538815       5.30916306      10.43644741       0.00000683       0.00000120       0.00000881
I       25.20187664      18.06990363       4.04957621       0.00000620       0.00000099      -0.00000682
I        5.86325423      19.17573377       3.95808327      -0.00000308       0.00000114       0.00000523
I        2.42714214       1.98739535      10.39842274      -0.00000621       0.00001037      -0.00000004
I        3.21563577      21.44634852      23.24910683      -0.00000161       0.00000846       0.00000278
I        2.16915515      21.57289813       3.94005820      -0.00000214      -0.00000232      -0.00000231
I        3.59201937       2.17934926       4.00027277      -0.00001310      -0.00000434      -0.00000073
I        2.50233762       5.27163130       0.79943753      -0.00000306       0.00000454      -0.00001957
I       21.72620170      18.15446479       0.77774894       0.00000310       0.00000799       0.00000425
I       21.70137627      18.22881256       7.20320147       0.00000712      -0.00000410       0.00000492
I        2.53891779      18.24113244       7.21016425       0.00000841       0.00000069       0.00000381
H       24.64129163      21.45224724      -0.59878368       0.00000153      -0.00000398       0.00002178
H       25.24568886       2.89805038      -0.55505636      -0.00001125      -0.00000248       0.00001090
H       25.35897269       2.92172389       8.52218005       0.00000588      -0.00000542       0.00000615
H       25.53915446      20.65372035       5.97683250       0.00000385      -0.00000153      -0.00000742
H       23.95655518      19.68199666       0.74561854       0.00001024       0.00000715       0.00000757
H       23.50497506       3.24981523       0.94911081      -0.00000121      -0.00000743       0.00001590
H        4.49943938      20.68994423       7.96125704       0.00000147      -0.00000407      -0.00000200
H       23.70157104      20.05577795       7.28683394       0.00000910       0.00001548       0.00000474
H        4.68806954       2.56447279       1.50405986      -0.00001009       0.00000555       0.00001516
H        7.24400044      21.36164983       2.12793983       0.00001017      -0.00000124       0.00001697
H        5.30618204      20.26257486       6.45859300      -0.00000875      -0.00000473      -0.00000623
H       24.02011183      21.26131138       8.49384216       0.00000719      -0.00000174       0.00000615
H        6.21002191       0.58737243       1.97390834      -0.00000048      -0.00000496       0.00001502
H        5.12374590      20.23911140       1.38642528       0.00001864      -0.00000124       0.00000529
H        7.44948910      21.50374612       5.97628820      -0.00000212       0.00000222      -0.00000303
H        4.69533441       2.57593972       6.49475699      -0.00001969      -0.00000514      -0.00003809
H       26.43753636      22.78235746      -0.00417445      -0.00000296       0.00000766      -0.00001225
H        4.47598829      20.77145549      -0.15993242       0.00002527       0.00000707       0.00001119
H       23.52076046       3.33612343       7.15340294       0.00000568      -0.00001104       0.00002130
H        5.01285042       3.46458412       7.97516295      -0.00000330       0.00003532       0.00002432
C       25.18416121      21.23969034       0.32695915      -0.00001621      -0.00000810      -0.00004440
C        6.18510281      21.68849922       0.39825044      -0.00002137      -0.00002336       0.00000771
C        6.20525768      21.70673871       7.60679263      -0.00002000      -0.00000651       0.00000011
C        6.25261995       1.90638661       7.66000342      -0.00000547       0.00000156       0.00001932
N        5.24072208       2.66086536       0.64585261       0.00001856       0.00002274      -0.00003928
N        7.17127294      21.87077608       1.24624678      -0.00001580       0.00001259      -0.00001405
N        5.27825789      20.82379023       7.31500906       0.00002122       0.00002004      -0.00001600
N       24.29425979      20.82427687       7.60986808      -0.00001810      -0.00001553      -0.00000945
N        6.64683713       0.85473226       1.08874211       0.00002248      -0.00000609       0.00000797
N        5.19727858      20.83855853       0.56164499      -0.00001710      -0.00001373      -0.00002151
N       24.18227051       2.61132430       6.86219765      -0.00001384       0.00000577      -0.00001099
N        5.24887909       2.69454688       7.34961437       0.00004015      -0.00003519       0.00000087
Pb      22.38818610      24.69648806      10.43810615       0.00001731       0.00000196       0.00001346
Pb       3.03931648      24.67780000      10.39491042       0.00000223       0.00000774       0.00000770
Pb      22.00995946      18.28022503       4.00462998      -0.00000432      -0.00000020       0.00000396
Pb      22.37892454      24.73949737       3.99901899      -0.00001438       0.00001489      -0.00001060
I       25.63923938      24.16782452      10.37947414      -0.00000191      -0.00000436      -0.00000165
I        6.29834310      24.70074046      10.40749211      -0.00000235       0.00000196       0.00000898
I        6.26381908      24.45961613       4.00606747      -0.00000506       0.00000091      -0.00000452
I       25.60523773      25.62502209       3.94765324       0.00000360       0.00000097       0.00000962