40
Lattice="17.908118702707064 -0.06647195523752335 -0.06892848689425708 0.041035640282610475 10.473487079221627 0.00957593331557835 0.02830330712801167 -0.006062546084013085 9.626876628099632" Properties=species:S:1:pos:R:3:forces:R:3 energy=-124.44370864611393 stress="0.0014329022083942589 7.869765593085032e-06 -3.9113084575976915e-05 7.869765593085032e-06 0.0015107516048833214 1.9616399300554098e-05 -3.9113084575976915e-05 1.9616399300554098e-05 0.0014155707285329955" free_energy=-124.44370864611393 pbc="T T T"
Cs      -3.01925443       7.67324500      -0.97096227       0.00001199      -0.00000114       0.00000430
Cs       3.17193161      16.39326535      -3.39441218      -0.00000225      -0.00000280      -0.00000542
Cs      -5.78869946      12.92033780      -0.95600596       0.00001250      -0.00000002       0.00001272
Cs       5.94135863      11.14615700      -3.40937971      -0.00001030       0.00000724      -0.00000589
Cs      -3.00510088       7.67018556       3.84247747       0.00000207       0.00001050      -0.00001216
Cs       3.18609125      16.39023767       1.41902554      -0.00000223       0.00000052      -0.00000918
Cs      -5.77451471      12.91731833       3.85745913       0.00000299      -0.00000421      -0.00001092
Cs       5.95550383      11.14313524       1.40405130      -0.00000805       0.00000399      -0.00000154
Pb      -7.80548375       8.51487279      -3.35847991      -0.00001753       0.00001538      -0.00000166
Pb       7.95819383      15.55162089      -1.00690526      -0.00005103      -0.00001557      -0.00000088
Pb      -1.01039489      13.72656618      -3.38062560       0.00003575      -0.00002776       0.00000251
Pb       1.16305508      10.33993070      -0.98479350       0.00002757       0.00002765       0.00000288
Pb      -7.79134846       8.51185465       1.45495461       0.00000568       0.00000968      -0.00000112
Pb       7.97232300      15.54863055       3.80653511      -0.00004834      -0.00003165      -0.00000573
Pb      -0.99628336      13.72348342       1.43279492       0.00005100      -0.00000651       0.00000641
Pb       1.17727023      10.33696071       3.82864914      -0.00001852       0.00000610       0.00001411
I       -8.91439159      10.37716703      -0.94676906       0.00002035      -0.00000549      -0.00001324
I       -8.84106010      13.75582324      -3.34971871       0.00000379       0.00000429       0.00001552
I        0.12717326      15.58017975      -0.97628197      -0.00001325      -0.00001596      -0.00000839
I        0.02552046       8.48632022      -3.38914148      -0.00001193       0.00001578       0.00000748
I        6.99669930       7.11625837      -3.41902409       0.00001013      -0.00000739      -0.00000665
I       -6.84401446      16.95026248      -0.94633513       0.00000934      -0.00000839      -0.00000249
I        2.08532280      12.37092614      -3.39283412      -0.00001427      -0.00001077      -0.00001316
I       -1.93265430      11.69557532      -0.97257232       0.00000345       0.00000346      -0.00000110
I       -5.05226106       9.95257001      -3.36823234      -0.00001597      -0.00000490      -0.00000213
I        5.20495441      14.11392623      -0.99714890       0.00004328       0.00002556      -0.00000183
I       -3.75255979      15.18491158      -3.36796853      -0.00004258       0.00001790      -0.00001337
I        3.90523541       8.88159356      -0.99739895       0.00001128      -0.00000335       0.00000682
I       -8.90022984      10.37412429       3.86667450       0.00000056      -0.00000191      -0.00000279
I       -8.82689895      13.75279627       1.46376963      -0.00000448       0.00000129       0.00000144
I        0.14133298      15.57710936       3.83709145      -0.00000247       0.00000264       0.00001898
I        0.03964242       8.48332550       1.42436930       0.00000271      -0.00000634       0.00000264
I        7.01085272       7.11322477       1.39435734      -0.00000515      -0.00000331       0.00002122
I       -6.82986361      16.94723452       3.86709072      -0.00000021      -0.00001299       0.00001124
I        2.09945976      12.36789894       1.42051209      -0.00000567      -0.00002410       0.00003432
I       -1.91847034      11.69254723       3.84093312      -0.00000494       0.00000310      -0.00001684
I       -5.03812287       9.94955162       1.44521833       0.00000479      -0.00000285      -0.00000711
I        5.21909318      14.11090372       3.81629878       0.00004999       0.00002069      -0.00001045
I       -3.73843007      15.18186133       1.44544108      -0.00003407       0.00002035      -0.00000227
I        3.91942131       8.87856589       3.81604601       0.00000403       0.00000129      -0.00000627
