96
Lattice="19.161069227872453 0.4004321714577662 0.052298886831458356 -0.058693496714160014 11.122695972557617 -0.05696468791347143 -0.008743821762618951 0.018383100997479068 9.629383498974596" Properties=species:S:1:pos:R:3:forces:R:3 energy=-419.25823018930714 stress="0.003174515391989977 0.00037882222568764345 5.0050154429697976e-05 0.00037882222568764345 0.0027129072554512514 -0.00014676123205993802 5.0050154429697976e-05 -0.00014676123205993802 0.002873792955344255" free_energy=-419.25823018930714 pbc="T T T"
I       16.60028817       5.11070792       1.82495870      -0.00000181      -0.00000752       0.00001029
I       17.23306592       8.92572329      -0.60640961       0.00000119       0.00001290       0.00001745
I        7.64738582      10.47212257       1.77243517      -0.00000504       0.00002226      -0.00000376
I        7.02494315       3.16394074      -0.60620569      -0.00002397      -0.00000449       0.00000517
I       14.94462158       1.57196753      -0.56213690      -0.00001207       0.00000411       0.00001063
I       -0.27228346      12.06405996       1.72843915      -0.00001235      -0.00001138       0.00000436
I        9.32803622       6.96404596      -0.61360013      -0.00000142      -0.00002806       0.00000304
I        5.34424424       6.67203465       1.77988360      -0.00000016       0.00000350      -0.00000744
I        1.37030594       4.57658876      -0.63179409      -0.00001171      -0.00000970      -0.00000479
I       13.30203637       9.05942423       1.79798886      -0.00001526       0.00000888       0.00000084
I        3.67746749      10.25135037      -0.65037209       0.00000580       0.00000664       0.00000093
I       10.99482366       3.38473601       1.81665228      -0.00001586      -0.00000412      -0.00000952
H        4.02423937       3.23376956       2.68962358       0.00001370      -0.00001321      -0.00000351
H       10.63974652      10.41102563       0.26454672       0.00001225      -0.00000661      -0.00000593
H        2.29655238       7.71529270       1.75579498       0.00001427       0.00000803       0.00000283
H       13.59894978       4.95370887       0.30069066      -0.00000362       0.00002628      -0.00001157
H        4.03231927       3.22499868       0.90155295       0.00001078       0.00000233       0.00000360
H       10.64818802      10.40247456      -1.52352362       0.00001452      -0.00001684       0.00001431
H        1.07357423       8.68229604       0.86562380       0.00000246      -0.00001084       0.00000076
H       12.37567419       5.92085386      -0.58892771      -0.00000744      -0.00002092      -0.00000477
H        2.81705887       2.25192471       1.79501245       0.00000734      -0.00000319       0.00000460
H       11.85525408      11.38413061      -0.62855322       0.00000223       0.00000413      -0.00000675
H        1.08257981       8.68653899       2.65328876       0.00001076      -0.00000322       0.00000088
H       13.58920597       4.94957881      -1.48697006       0.00001491      -0.00000379      -0.00003703
H        5.76694581       1.75732996       1.81117643      -0.00000332      -0.00001826       0.00000827
H       10.05628616      12.78437904      -1.47209012      -0.00001278      -0.00000066      -0.00001211
H        0.49620495       6.29697786       0.93844460      -0.00000939       0.00002578      -0.00000312
H       14.16728012       7.33579981      -1.43064243       0.00002073      -0.00001365      -0.00000660
H        4.62341232       0.84464921       0.98048372       0.00001356       0.00000238       0.00001895
H       10.04881727      12.79143441       0.18576785       0.00001014       0.00000564      -0.00001147
H       -0.65002822       7.20210540       1.77311333       0.00000050      -0.00000653       0.00001253
H       15.32228042       6.43383821      -0.60743475       0.00000416       0.00001149       0.00001368
H        4.61627679       0.85187632       2.63833801      -0.00000677       0.00000523       0.00001011
H        8.90539983      11.87891200      -0.64526970       0.00001647       0.00000196       0.00001549
H        0.50470265       6.30028504       2.59688211      -0.00002191      -0.00000792       0.00000784
H       14.17643765       7.33898051       0.22779013      -0.00001315       0.00000553       0.00002619
C        3.84613476       2.62606064       1.79774976      -0.00000881      -0.00000853      -0.00000264
C       10.82615535      11.01006082      -0.63153906      -0.00002130      -0.00000489       0.00003734
C        1.26461591       8.08197317       1.75994503       0.00000058      -0.00001572      -0.00001239
C       13.40758386       5.55410210      -0.59351438      -0.00003407      -0.00000796       0.00003556
Pb      -1.28001856       2.87286765      -0.62788887       0.00000504       0.00002117       0.00000326
Pb      15.95233659      10.76313246       1.79416938       0.00000616      -0.00000135       0.00000941
Pb       6.37257123       8.62556597      -0.63201913       0.00000938      -0.00001741      -0.00000468
Pb       8.29970951       5.01050174       1.79828892       0.00000811       0.00001477      -0.00000967
N        4.77776497       1.46665327       1.80746460      -0.00001421      -0.00000042      -0.00002576
N        9.89459906      12.16952563      -0.64130414      -0.00003664      -0.00003253      -0.00001633
N        0.34047293       6.91604056       1.76721255       0.00001513       0.00000274      -0.00000951
N       14.33180128       6.71997189      -0.60107618       0.00003002       0.00001819      -0.00001971
I       16.59591034       5.11989236       6.63968141      -0.00000783      -0.00000165      -0.00000509
I       17.22874529       8.93494393       4.20833604      -0.00001012       0.00000381      -0.00002013
I        7.64298684      10.48132896       6.58715555      -0.00000072       0.00000375       0.00000126
I        7.02054968       3.17312785       4.20852356      -0.00001712       0.00000716      -0.00000266
I       14.94021490       1.58114634       4.25253320       0.00002171      -0.00000138      -0.00000150
I       -0.27670664      12.07322058       6.54311308       0.00000620       0.00000500      -0.00000109
I        9.32367355       6.97322654       4.20106214       0.00000556       0.00000542       0.00000635
I        5.33990335       6.68121568       6.59455640       0.00000241       0.00001337      -0.00000324
I        1.36589304       4.58580534       4.18288285       0.00000264      -0.00000651      -0.00000354
I       13.29758393       9.06862977       6.61270271       0.00000510      -0.00001173       0.00001152
I        3.67309246      10.26051247       4.16427669       0.00000066       0.00001326       0.00001066
I       10.99050184       3.39396291       6.63121564      -0.00001223      -0.00000158       0.00000283
H        4.02782751       3.23413284       5.71625480       0.00001329      -0.00001543       0.00001300
H       10.64371667      10.41146108       3.29138962      -0.00001399       0.00000688       0.00000516
H        1.06935375       8.69147911       5.68048183       0.00000100       0.00000260      -0.00000908
H       13.59445400       4.96298083       5.11532589       0.00000274       0.00000105      -0.00002211
H        2.81264528       2.26103443       6.60979477      -0.00000690      -0.00000411      -0.00000726
H       11.85080924      11.39328674       4.18613700       0.00001870       0.00002393      -0.00000482
H        1.07835827       8.69560565       7.46814806       0.00000345      -0.00000311      -0.00001138
H       12.37138325       5.93000343       4.22530359      -0.00002535       0.00001268       0.00000283
H        4.01985648       3.24291083       7.50432583       0.00001558       0.00001131       0.00001049
H       10.63541004      10.42025700       5.07946012       0.00000967      -0.00002792      -0.00001100
H        2.29226124       7.72433257       6.57059132       0.00001085       0.00001001       0.00000360
H       13.58523340       4.95874740       3.32766014      -0.00001339      -0.00000281       0.00000202
H        4.61898492       0.85379156       5.79517088      -0.00000270      -0.00000680       0.00002202
H        8.90093490      11.88794959       4.16963218       0.00000124      -0.00000966      -0.00000980
H        0.50032073       6.30939591       7.41158404       0.00000122       0.00000930      -0.00001050
H       15.31797061       6.44315003       4.20757679      -0.00003342      -0.00000088       0.00001718
H        4.61193751       0.86104211       7.45303032      -0.00000560      -0.00001326      -0.00001623
H       10.05169833      12.79335829       3.34256478       0.00002970       0.00001539      -0.00000494
H        0.49181560       6.30620495       5.75314337      -0.00001971      -0.00001600      -0.00000854
H       14.17187528       7.34825673       5.04247406      -0.00000468       0.00001476       0.00002207
H        5.76254345       1.76650446       6.62578658       0.00000803       0.00000094       0.00001341
H       10.04440653      12.80062154       5.00041757       0.00000810       0.00001864      -0.00001376
H       -0.65435413       7.21135390       6.58788460      -0.00000274      -0.00001234       0.00000109
H       14.16312493       7.34501714       3.38403573       0.00000933       0.00000102       0.00000414
C        3.84171232       2.63519410       6.61246620       0.00000865       0.00000039      -0.00002415
C       10.82172529      11.01917654       4.18327843       0.00000034      -0.00001393      -0.00001837
C        1.26035033       8.09108516       6.57476465      -0.00000950      -0.00000283      -0.00001642
C       13.40331412       5.56331022       4.22102990       0.00001627      -0.00002188       0.00001251
Pb      -1.28442069       2.88208012       4.18678700       0.00000550      -0.00000453       0.00000416
Pb      15.94793950      10.77229870       6.60886231      -0.00000230       0.00003786      -0.00002007
Pb       6.36821212       8.63475686       4.18264841      -0.00000011      -0.00001158       0.00000572
Pb       8.29536213       5.01971578       6.61296677      -0.00000010       0.00001420       0.00001140
N        4.77336853       1.47580762       6.62213757      -0.00001748       0.00001798      -0.00001245
N        9.89012224      12.17860329       4.17343866       0.00000296       0.00000769       0.00003751
N        0.33612627       6.92521699       6.58195434      -0.00000736       0.00002106       0.00001298
N       14.32747318       6.72922810       4.21366163       0.00004534      -0.00002380      -0.00002503
