96
Lattice="19.876117438610358 0.009049020065278638 0.11928561644754529 0.005993411876506351 11.736911566304919 0.23259432817138487 -0.07614648249942882 -0.10475192053415154 9.345999253851597" Properties=species:S:1:pos:R:3:forces:R:3 energy=-457.7173940748037 stress="0.003974234562392296 5.73841437407094e-05 0.00013794870014798133 5.73841437407094e-05 0.003202481403405959 0.0001580175196257384 0.00013794870014798133 0.0001580175196257384 0.0038651359759412033" free_energy=-457.7173940748037 pbc="T T T"
H        7.96861414      -1.56003277       5.26001618       0.00000048      -0.00000551       0.00000219
H       12.41577144      10.20674820       2.93743870       0.00000411      -0.00000902      -0.00000288
H        2.51121643       4.32028910       4.97423068       0.00000062      -0.00001426      -0.00001473
H       17.94981331       4.31917953       2.96059436       0.00001501       0.00000976      -0.00000210
H        7.82460279       0.49821381      10.90380228       0.00000093      -0.00001008      -0.00000243
H       12.44231278       8.27812215       1.64140398       0.00000439       0.00000853       0.00000263
H        4.18425051       3.49736963      11.04433195      -0.00000289       0.00000394       0.00001420
H       17.93992958       2.35935579       4.20715929      -0.00000590      -0.00000747      -0.00002050
H        5.39161116      -0.77770270       3.96067382       0.00001235      -0.00000867       0.00001080
H       14.14101800       7.95467214       1.96309570       0.00001371      -0.00000819      -0.00000026
H        5.06162247       5.02377342      10.94025780       0.00000022       0.00000315      -0.00000400
H       16.23190789       2.05207118       3.91231960      -0.00000790      -0.00002295       0.00001453
H        6.30382375       0.91762793       5.49839026       0.00000114      -0.00000191       0.00000288
H       15.24150918       9.49336290       3.61703750       0.00001960       0.00001026       0.00000735
H        5.09970584       5.07614968       6.26725281       0.00001077      -0.00000575      -0.00000502
H       15.10049131       3.64923419       2.33596070      -0.00000901       0.00000388      -0.00000470
H        7.86264368       0.55054866       6.23082139      -0.00000256      -0.00000379       0.00000641
H       14.30419885      10.89755595       4.10417316       0.00001448       0.00002814       0.00002111
H        4.22229298       3.54977831       6.37144586      -0.00001045      -0.00000237      -0.00001381
H       16.00290484       5.00132492       6.53069912      -0.00000686      -0.00000374       0.00001494
C        7.11188509      -0.91062512       5.05229354       0.00000423      -0.00000466       0.00000081
C       13.32837801       9.60304907       2.88592192      -0.00001791      -0.00000356      -0.00000317
C        3.36633837       4.96845333       5.19295332      -0.00000681       0.00001911       0.00001249
C       17.03457823       3.71996136       3.01715018      -0.00002645      -0.00000563       0.00000263
N        6.19010785      -1.36166877       4.23438694       0.00000688       0.00000456      -0.00000748
N       13.30288208       8.51860567       2.14311495      -0.00001248       0.00000982       0.00002690
N        4.26426657       4.44405669      10.65530857       0.00000127      -0.00001755      -0.00001199
N       17.07002723       2.61609266       3.72977299       0.00001027       0.00002219      -0.00001017
N        7.07805531       0.26737929       5.63693172       0.00000565       0.00000307      -0.00002385
N       14.36667569      10.01940641       3.57344709      -0.00002205      -0.00003517      -0.00002641
N        4.30232060       4.49644239       5.98236751       0.00001241       0.00000008       0.00001264
N       15.98341025       4.16176106       2.36569585       0.00004235       0.00001073       0.00001813
Pb       1.41475999       0.26136415       2.94609890       0.00001214       0.00000757      -0.00000663
Pb      19.05918137       8.36642326       5.39009873       0.00000297      -0.00000689       0.00001004
Pb       9.08995022       6.14420857       2.67698216      -0.00000894      -0.00000298       0.00000351
Pb      11.27064695       2.48959466       5.13103633       0.00000084      -0.00000359       0.00000591
I        0.40079355       2.27366869       5.28158443      -0.00000085       0.00000267       0.00000575
I        0.21285144       6.35387467       2.92176097       0.00000415      -0.00000086       0.00000569
I       10.08353677       8.14943250       5.06602940       0.00000105      -0.00000228      -0.00000276
I       10.26312821       0.49362663       2.75582411       0.00001081       0.00000140       0.00000877
I       18.23087204      -1.18458189       2.86540383      -0.00000589       0.00000829       0.00000284
I        2.24477542       9.81606840       5.45958661      -0.00000667      -0.00001000      -0.00000447
I       12.14326711       4.66903421       2.80090100       0.00000601      -0.00000259       0.00000367
I        8.21672525       3.96844634       5.01845474      -0.00000721       0.00000964       0.00000446
I        4.28019750       1.52558819       3.23155652      -0.00000299      -0.00001750      -0.00000184
I       16.18323412       7.12782425       5.08429635      -0.00000445       0.00000792      -0.00000884
I        6.22714483       7.41580734       2.43628455      -0.00000533      -0.00000196      -0.00000378
I       14.14263841       1.24106254       5.39512349       0.00000424       0.00000216      -0.00000708
H        7.93060165      -1.61238417       9.93303474       0.00000960      -0.00001178       0.00000542
H       12.37772973      10.15439692       7.61060928       0.00000630       0.00001999       0.00000101
H        2.47321907       4.26788740       9.64707432       0.00001248       0.00001937       0.00002401
H       17.91171615       4.26683206       7.63339118       0.00002660       0.00000410       0.00001394
H        6.27828801      -2.29567079       3.81815549      -0.00000677       0.00000468      -0.00001427
H       14.26618824      10.84522882       8.77729392      -0.00001126       0.00000264      -0.00001044
H        2.58866426       6.46120897       4.07369614       0.00000292       0.00000097       0.00001499
H       17.90194734       2.30704209       8.88001469      -0.00001407       0.00000147      -0.00000636
H        6.26579930       0.86527586      10.17132778      -0.00001977       0.00000388      -0.00000344
H       15.20350210       9.44105321       8.29011734      -0.00000318       0.00000481      -0.00000655
H        4.15514080       6.81652958       4.79557167      -0.00002118      -0.00001786      -0.00000320
H       16.19391385       1.99972091       8.58529644      -0.00000664       0.00001090      -0.00001325
H        5.35361219      -0.83009006       8.63364864       0.00000422      -0.00001842       0.00000118
H       14.10298367       7.90236004       6.63619293      -0.00001776       0.00000532       0.00000462
H        4.11702728       6.76422157       9.46866977       0.00003420       0.00001241       0.00001313
H       15.06235473       3.59684432       7.00898506       0.00000911       0.00001653      -0.00000017
H        6.24029763      -2.34805514       8.49115532      -0.00000186       0.00001253       0.00000179
H       12.40426885       8.22579815       6.31454450       0.00000632      -0.00000600      -0.00000892
H        2.55060396       6.40887313       8.74669611      -0.00001082       0.00001283      -0.00000395
H       16.04108158       5.05372198       1.85777928      -0.00000978      -0.00001114      -0.00000021
C        7.07387272      -0.96298505       9.72528741      -0.00001270       0.00000981      -0.00000861
C       13.29034580       9.55071588       7.55906161       0.00000113      -0.00000714       0.00000386
C        3.32829984       4.91607852       9.86588281      -0.00001150      -0.00000700      -0.00000925
C       16.99649381       3.66760266       7.69002868      -0.00000045       0.00000311      -0.00000033
N        7.04002890       0.21503196      10.30989899      -0.00000778      -0.00000940       0.00000561
N       14.32865540       9.96707848       8.24656512       0.00000352      -0.00001370      -0.00001102
N        3.38324932       6.16570394       4.64828849       0.00003431       0.00001773      -0.00001351
N       17.03201111       2.56375159       8.40267489      -0.00000443      -0.00001865       0.00002819
N        6.15210927      -1.41404879       8.90737598      -0.00000422       0.00001001      -0.00000345
N       13.26484450       8.46627990       6.81624368       0.00001215      -0.00001488      -0.00000506
N        3.34518155       6.11336496       9.32129579      -0.00001795      -0.00001962      -0.00000963
N       15.94527531       4.10937354       7.03863762      -0.00001903      -0.00000460      -0.00000031
Pb       1.37670159       0.20896684       7.61909739      -0.00001152       0.00000542       0.00000197
Pb      19.02110876       8.31403565      10.06310977       0.00000022      -0.00000101      -0.00000664
Pb       9.05187115       6.09181781       7.34996241      -0.00000153      -0.00000043       0.00000171
Pb      11.23257666       2.43723558       9.80403977      -0.00000233      -0.00000149       0.00000284
I        0.36275089       2.22130076       9.95455952      -0.00000661      -0.00000068       0.00000208
I        0.17478207       6.30150895       7.59475583       0.00001422      -0.00000416      -0.00000526
I       10.04542625       8.09705072       9.73899669      -0.00000004       0.00000963       0.00000912
I       10.22505662       0.44125277       7.42882752      -0.00001315       0.00000625       0.00000750
I       18.19280644      -1.23695984       7.53841257       0.00000266       0.00000808       0.00000057
I        2.20669543       9.76369151      10.13260444       0.00000623      -0.00000899      -0.00000363
I       12.10520527       4.61664517       7.47390377       0.00000122       0.00000202      -0.00000751
I        8.17865627       3.91607715       9.69148268       0.00000836       0.00001155      -0.00000447
I        4.24214667       1.47318132       7.90455877      -0.00000342       0.00000343      -0.00000086
I       16.14517270       7.07542408       9.75728886       0.00000701      -0.00000373      -0.00000912
I        6.18909308       7.36343730       7.10926252      -0.00000808      -0.00000462       0.00000046
I       14.10461623       1.18877924      10.06813584      -0.00000441       0.00000789      -0.00000692
