96
Lattice="12.801343946967348 0.03228246481908556 0.019512663946268136 -0.019657189203309063 12.722136972159566 0.011447524059479824 -0.07799029947463236 -0.049648045503041256 12.696842315609027" Properties=species:S:1:pos:R:3:forces:R:3 energy=-457.2199544315694 stress="0.0015401469432875317 1.849899858639947e-05 -0.00012183883593362071 1.849899858639947e-05 0.0020990681654753556 0.0009053337220644861 -0.00012183883593362071 0.0009053337220644861 0.0018648983641187827" free_energy=-457.2199544315694 pbc="T T T"
H        7.99200874      11.56858490       3.64787830       0.00002583      -0.00000486      -0.00000787
H        8.00254119       4.17080898       4.66656708      -0.00000845      -0.00000539       0.00001324
H        7.96292336       5.18278118       9.99053838      -0.00000224      -0.00001304       0.00000586
H        7.95385083      10.50692784      11.02080876      -0.00002907       0.00000845      -0.00000830
H        8.07539605      10.33890055       5.61872095      -0.00001376       0.00000400      -0.00000103
H        9.47824282       2.43433629       4.24520985      -0.00000286      -0.00001272       0.00000136
H        3.04607888      12.11495172       9.26454590       0.00000919       0.00000578       0.00000335
H        8.06537538      12.49223630       9.81717179       0.00001495      -0.00001364      -0.00000985
H        3.90565224       4.90921306       4.21290030       0.00003293       0.00000209       0.00001969
H        3.89002897      11.08896621       4.40800108      -0.00002329      -0.00001338      -0.00000605
H        3.85681342      11.24534239      10.56705803       0.00001880      -0.00000157       0.00000836
H        9.42612128      11.95725596       8.85995100       0.00000721      -0.00000271      -0.00000202
H        3.05372110       2.60774679       4.67819442      -0.00000505      -0.00000507      -0.00001983
H        3.06775013      11.56319345       2.09835322      -0.00000652      -0.00001067       0.00000488
H        3.00480630       8.94386456      11.03227929      -0.00001036       0.00001329      -0.00000704
H        3.03855906       5.17725057       8.44101873      -0.00001427      -0.00002883       0.00002219
H        9.48390482      11.16143131       1.92184348      -0.00000527      -0.00000405      -0.00000927
H        1.71218823      10.60745313       1.54641805      -0.00004050      -0.00001292      -0.00005380
H        9.45465321       4.77538882       8.26442491      -0.00000683       0.00000221       0.00000639
H        1.68300367       4.22147429       7.88913608      -0.00001547      -0.00000335      -0.00002855
C        8.74943791      10.78657068       3.76048741      -0.00001843      -0.00000490       0.00004835
C        2.35783253      10.16086825       3.41444478      -0.00000647      -0.00001349       0.00001506
C        2.31774712      10.27153995       9.62911535      -0.00000239       0.00000485       0.00000047
C        2.32866638       3.77496976       9.75717700      -0.00001835      -0.00000799      -0.00001303
N        3.16481929       4.95101925       3.50575705      -0.00001287       0.00003367      -0.00002443
N        3.14555698      10.38544380       4.43970654       0.00002020       0.00001156      -0.00000170
N        3.11598648      11.28718096       9.85990775      -0.00001315       0.00000981      -0.00002143
N        8.76304853      11.77121308       9.61158428      -0.00001521       0.00004389      -0.00001782
N        2.39874385       2.79152152       3.91900661      -0.00000431      -0.00004031       0.00002926
N        2.40641269      10.80716365       2.27253488       0.00004726       0.00000083       0.00004863
N        9.52234990       4.17564558       9.08915285       0.00002308      -0.00000801       0.00000809
N        2.37723301       4.42121905       8.61523978       0.00001726       0.00001374       0.00000882
Pb       5.72480928       0.93941588      13.14571162      -0.00000207       0.00001127      -0.00000446
Pb      -0.67436232       0.83069336      13.05475325      -0.00000916       0.00000739      -0.00001712
Pb       5.75397621       7.32531591       6.80297271      -0.00000436      -0.00000794       0.00000168
Pb       5.76559343       0.95772269       6.80141853      -0.00000081       0.00000015      -0.00000906
I        8.92373125       0.63732598      13.28004282      -0.00000559      -0.00000106       0.00001369
I        2.50258658      13.87327007      12.93676624       0.00000756       0.00000514       0.00000095
I        2.56171696       0.74259591       7.02157719       0.00000363       0.00000401      -0.00000651
I        8.96260786       1.09426273       6.48632088       0.00001072       0.00000805       0.00000378
I        5.44346991      10.45794552      12.57218752      -0.00000807       0.00000527       0.00000733
I        6.00709091       4.14497869       0.90795303       0.00000474      -0.00000368       0.00000355
I        5.49226692       4.12168247       6.21807195      -0.00000566      -0.00000152      -0.00001107
I        5.95827044      10.48120293       7.26210373      -0.00000301       0.00000155       0.00000435
I        5.47686125      13.10174898       3.61441523       0.00000241      -0.00000280       0.00000819
I       -0.40071326       0.41183050       3.54914150      -0.00000507       0.00001138       0.00000617
I       -0.93983529       1.44007392       9.89740774       0.00000564       0.00000286      -0.00000165
I        5.95906240       1.40308717       9.95636009      -0.00001136      -0.00000174      -0.00001462
H        1.61068151       4.04833103       2.49153014      -0.00003092      -0.00000823      -0.00001597
H        1.59711361       9.38071670       3.51742710       0.00001400       0.00000232       0.00001112
H        1.56183318      10.38456051       8.84564154       0.00000202      -0.00000009       0.00000592
H        1.56795801       2.99481298       9.86019061       0.00000620      -0.00001251       0.00002934
H        3.09489100       5.77877633       2.91037736      -0.00000519      -0.00003075       0.00001087
H        3.06446338       9.78739395       5.26442824      -0.00000652       0.00000377      -0.00000564
H        8.04627097       3.95313568      11.96141061      -0.00000541       0.00000558      -0.00000644
H        3.03532050       3.40157937      11.60717174      -0.00001967       0.00000948      -0.00003965
H        9.43561804       9.38066459       5.08594579       0.00001495      -0.00000641       0.00000768
H       10.30491090       3.30843528       2.95605546       0.00000693       0.00000727      -0.00000320
H        9.40635890       2.99473749      11.42859861       0.00001064       0.00000765      -0.00001180
H        3.86085466       4.70312932      10.75068037       0.00000788       0.00000133       0.00000888
H       10.29460544       9.85678922       2.78803354      -0.00000145      -0.00000544      -0.00001273
H        9.47507973       5.62098799       2.50579516       0.00000734       0.00000084      -0.00000521
H       10.26526756       3.47069099       9.13061132      -0.00000141       0.00000864       0.00000397
H       10.25609218       9.64471162       9.31004394      -0.00001623      -0.00002055       0.00002263
H        1.69892628       2.07238604       3.71369922       0.00001379       0.00003601       0.00000174
H        8.11425475       6.15606078       3.46286369       0.00001960      -0.00002237      -0.00000548
H        1.65000165       8.40858860      10.06775866       0.00000254      -0.00001156       0.00000206
H        9.42955411       8.77052262      10.59922563       0.00000532      -0.00001671       0.00000802
C        2.36660426       3.93535101       3.27499956       0.00002756       0.00000348      -0.00001539
C        8.76549575       4.28542543       3.89017408       0.00001026       0.00000271      -0.00001507
C        8.72026586       4.40068157      10.10313066       0.00000134      -0.00000438      -0.00001214
C        8.71672461      10.62160543      10.24434580       0.00004046      -0.00005091       0.00003488
N        8.77909611      10.13848970       4.90202127      -0.00000181       0.00002270      -0.00003255
N        9.55789636       3.26583425       3.65649952      -0.00001201       0.00000108       0.00000055
N        8.74992420       3.75264295      11.24468822      -0.00000737       0.00000361       0.00002837
N        3.11639257       3.99959848      10.78242504       0.00002067      -0.00000461       0.00000783
N        9.55162158      10.56167234       2.74655847      -0.00000709      -0.00001533      -0.00000812
N        8.81191811       5.43500302       3.25736393      -0.00001082       0.00001104       0.00001171
N        2.34984522       9.12769115      10.27309024       0.00001222      -0.00001005       0.00000498
N        9.50913734       9.60205120      10.01055141      -0.00000491       0.00004838      -0.00003621
Pb      -0.68517274       7.19691146      13.05629739      -0.00000345       0.00001449       0.00000606
Pb       5.71677170       7.29396636      13.15550619       0.00000940       0.00001273       0.00001368
Pb      -0.63633750       0.86065431       6.70217489      -0.00000207      -0.00000089      -0.00000265
Pb      -0.64520662       7.21654408       6.71202516      -0.00000994      -0.00000361      -0.00000022
I        2.51289238       7.07889503      13.37568693       0.00000676      -0.00000744      -0.00000026
I        8.91378816       7.43059995      12.84044891      -0.00000585      -0.00000328      -0.00000230
I        8.95288087       7.02316291       6.93732998       0.00001666      -0.00000400       0.00001240
I        2.55140156       7.53696380       6.58259075       0.00000138       0.00000676       0.00000921
I       -0.96705410       4.03239981      13.64338088      -0.00000925      -0.00000605      -0.00000608
I       -0.40375468      10.44672067      -0.09201028      -0.00000831      -0.00000053      -0.00001022
I       -0.93787851      10.41823673       7.30058113       0.00000580       0.00002020       0.00001321
I       -0.43292754       4.06077908       6.25066593      -0.00000739       0.00000523      -0.00000576
I       11.89069788       7.85826896       3.57421740      -0.00000167       0.00000467      -0.00000911
I        5.98821961       7.78896384       3.61362215       0.00000307      -0.00000113       0.00000231
I        5.44770990       6.71585423       9.95707746      -0.00000270       0.00000867       0.00000845
I       -0.44960503       6.74801399       9.90327471      -0.00000641       0.00001258      -0.00000091
