768
Lattice="31.692300772957427 -0.23817137476388267 -0.22381648450105096 0.5088677045445024 30.322791612077314 -0.23448971252077258 0.24061368353779242 0.18551094893401907 17.36600211817343" Properties=species:S:1:pos:R:3:forces:R:3 energy=-3351.3895626098474 stress="0.0024398356213128076 0.00027081163466826665 -0.00018739887677976841 0.00027081163466826665 0.0039022075146762296 4.233831034717053e-05 -0.00018739887677976841 4.233831034717053e-05 0.0032253524838722013" free_energy=-3351.3895626098474 pbc="T T T"
I        6.69559812       3.40632070       2.43235101       0.00002476       0.00001118      -0.00000477
I        1.31499360       8.11512815       3.40888209      -0.00001144       0.00000656      -0.00001269
I        6.81291007       3.30081379       6.75384431      -0.00000084       0.00001753       0.00001091
I        1.31809389       8.31342191       7.77039911       0.00002017      -0.00000207       0.00000988
I        5.23063086       7.00519424       5.56295549       0.00000213       0.00001066      -0.00000378
I        2.90027135       4.60899887       8.96130657      -0.00000516       0.00000355      -0.00001079
H        1.82955550       4.12496062       3.67426374       0.00000438      -0.00000818       0.00000926
H        6.18106113       7.39645406       2.16703378      -0.00000293       0.00000920       0.00000008
H        3.41919468       4.65452026       4.32110282       0.00001968      -0.00000380      -0.00000419
H        5.45121600       8.25517567       0.76866675       0.00000813      -0.00001471       0.00000094
H        2.55935776       3.26631441       5.07269986       0.00000712      -0.00001196      -0.00001267
H        4.59139873       6.86693462       1.52022097      -0.00001356      -0.00000121      -0.00000519
H        0.82485764       4.79053164       5.79995432      -0.00001148       0.00001221       0.00001445
H        5.72120671       6.20921860      -0.54170947      -0.00001135      -0.00000712       0.00002523
H        1.59430587       6.10303809       5.06146900      -0.00001116      -0.00000723       0.00000493
H        6.41624514       5.41844224       0.77971926      -0.00000207      -0.00000435       0.00001093
H        2.28933616       5.31234392       6.38295009      -0.00001831      -0.00000278      -0.00001840
H        7.18570063       6.73097098       0.04129338       0.00000352       0.00000402       0.00000796
C        2.44068392       4.23493674       4.57523494      -0.00000822      -0.00001483      -0.00002174
C        5.56990312       7.28652640       1.26607701       0.00000678       0.00000425       0.00000069
Pb       5.02490757      17.15104865       8.90105922       0.00000613      -0.00000690       0.00001886
Pb       1.06374073      17.25035594       8.93230603       0.00002981      -0.00001562      -0.00000117
N        1.74828624       5.17323782       5.50841575       0.00003887      -0.00000485       0.00002316
N        6.26226830       6.34826751       0.33282794       0.00000092       0.00000962      -0.00001116
I        5.30997709      10.90957336       7.71760210       0.00001016       0.00000978       0.00000281
I        3.07536380      15.86599637       6.68940144      -0.00000566       0.00000561       0.00000538
I        5.29989749      11.02832444       3.35544632      -0.00001513       0.00000725      -0.00000380
I        2.96526047      15.65448485       2.36855722       0.00000665       0.00001797      -0.00001029
I        6.94940855      14.50813827       0.16441738      -0.00000832      -0.00001564      -0.00000585
I        1.31565617      12.17472236       5.55954913       0.00002100      -0.00000624       0.00002179
H        0.85033890      12.31353447      10.23171410      -0.00000523       0.00000156      -0.00000253
H        6.73801954      15.87021162       4.95869727       0.00002023       0.00001987      -0.00000268
H        1.64717869      10.90546884       9.44835005       0.00001364       0.00002136      -0.00001408
H        7.53517303      14.46221359       4.17553494       0.00000054      -0.00000426      -0.00000770
H        2.43943166      11.72952351      10.83301726       0.00002940       0.00001363       0.00003623
H        5.94609593      15.04597588       3.57394496      -0.00001989      -0.00001675       0.00001821
H        2.69893383      13.71195557       9.45286631       0.00000669      -0.00001043      -0.00004099
H        5.68654681      13.06362147       4.95415930      -0.00000019      -0.00002039      -0.00000020
H        1.94908539      12.95058609       8.14666280      -0.00000169      -0.00001690      -0.00001696
H        4.97363399      14.39500390       5.71497062      -0.00000468      -0.00001010       0.00001001
H        3.41170315      12.38053533       8.69197311       0.00000028       0.00003351      -0.00000697
H        6.43624363      13.82506680       6.26041110      -0.00000652       0.00002387       0.00000754
C        1.80843005      11.86594950       9.94956610      -0.00003630      -0.00002873      -0.00000937
C        6.57697601      14.90968471       4.45750530       0.00001355      -0.00003310      -0.00000956
Pb       3.36047151       9.62455833       5.50589646      -0.00001913       0.00000484       0.00000143
Pb       7.32163887       9.52521344       5.47475283       0.00001311      -0.00001339      -0.00000914
N        2.50644487      12.78932542       9.00593082       0.00000738      -0.00001205       0.00003102
N        5.87894321      13.98627004       5.40109088      -0.00002807       0.00003619      -0.00001425
I       14.61868097       3.34678669       2.37643013       0.00000218      -0.00000320      -0.00000230
I        9.23808583       8.05552177       3.35295687       0.00000977       0.00002520       0.00001051
I       14.73598185       3.24127011       6.69794148      -0.00001044      -0.00000352      -0.00002935
I        9.24111504       8.25381469       7.71447232       0.00000585       0.00000290      -0.00001050
I       13.15377616       6.94564157       5.50707328      -0.00000415      -0.00001255      -0.00001265
I       10.82336529       4.54944112       8.90529366       0.00001178       0.00000274       0.00001443
H        9.75281817       4.06545018       3.61812988      -0.00001158      -0.00001751       0.00001996
H       14.10392837       7.33681746       2.11122814       0.00000906       0.00002620       0.00003469
H       11.34243336       4.59487297       4.26513266       0.00001097      -0.00000447      -0.00000627
H       13.37447056       8.19572175       0.71276961      -0.00001979      -0.00001248      -0.00000108
H       10.48247949       3.20663727       5.01654026       0.00000873       0.00000369      -0.00001136
H       12.51436195       6.80749356       1.46401495       0.00001430       0.00002053       0.00002267
H        9.51747625       6.04337835       5.00546954       0.00000555       0.00000142       0.00000927
H       15.10890677       6.67148819      -0.01447781       0.00000209       0.00001140       0.00000772
H       10.21250832       5.25263539       6.32692184      -0.00000608      -0.00000496       0.00000755
H       13.64448344       6.14973543      -0.59764816      -0.00003354       0.00000960      -0.00001054
H        8.74803849       4.73083934       5.74389681      -0.00000561      -0.00000759      -0.00000952
H       14.33937968       5.35894711       0.72384773      -0.00001372      -0.00001076       0.00002533
C       10.36388456       4.17531138       4.51915696      -0.00000307       0.00000534       0.00000121
C       13.49296138       7.22702188       1.21012740      -0.00001140      -0.00004384      -0.00001721
Pb      12.94799609      17.09150266       8.84513239      -0.00001513      -0.00000329       0.00001147
Pb       8.98681305      17.19081795       8.87632082      -0.00000155       0.00000344       0.00000251
N        9.67146714       5.11356070       5.45237684      -0.00000579       0.00001005       0.00000851
N       14.18544602       6.28877770       0.27695262       0.00002596      -0.00001865      -0.00003850
I       13.23305862      10.85002603       7.66167569       0.00001094       0.00000916       0.00000719
I       10.99845970      15.80645004       6.63345755      -0.00000679       0.00000563      -0.00000299
I       13.22290245      10.96876495       3.29953797      -0.00000261       0.00000455       0.00000092
I       10.88830479      15.59495358       2.31259854      -0.00001106       0.00000711      -0.00000417
I       14.87249497      14.44857455       0.10848559      -0.00000142       0.00001189       0.00000781
I        9.23875549      12.11512878       5.50363088      -0.00001183      -0.00000462       0.00000956
H        9.57035584      10.84589360       9.39242258      -0.00000315       0.00000350       0.00001516
H       13.86897890      14.98637984       3.51803812      -0.00000381      -0.00000658      -0.00001248
H       10.36244854      11.67007946      10.77710975       0.00001607       0.00000353      -0.00000341
H       14.66108587      15.81061631       4.90268417      -0.00001480      -0.00001524       0.00001684
H        8.77336340      12.25394945      10.17564903      -0.00001818      -0.00000193       0.00000312
H       15.45810664      14.40257895       4.11945869       0.00002014      -0.00000606      -0.00001293
H        9.87219759      12.89097678       8.09065954       0.00000145      -0.00000159       0.00000228
H       12.89669225      14.33542725       5.65910435      -0.00000114       0.00001704       0.00001268
H       11.33481446      12.32101692       8.63605524      -0.00000436       0.00000350       0.00001418
H       14.35934493      13.76555812       6.20450096      -0.00000915      -0.00000801       0.00000070
H       10.62195959      13.65243251       9.39686852       0.00000860       0.00001575      -0.00002625
H       13.60959984      13.00402798       4.89832186       0.00000695       0.00000979       0.00000403
C        9.73150552      11.80641104       9.89360074       0.00000186      -0.00002390      -0.00001709
C       14.49995548      14.85008395       4.40152847       0.00000995       0.00000893      -0.00001049
Pb      11.28353254       9.56495234       5.45001086       0.00000712       0.00001071      -0.00002236
Pb      15.24472342       9.46571788       5.41880028      -0.00001360      -0.00001834      -0.00001728
N       10.42952620      12.72977903       8.94996190      -0.00000140      -0.00000462       0.00001228
N       13.80199733      13.92670222       5.34519961      -0.00001183       0.00000946      -0.00001466
I        6.81590496       3.49907617      11.11535207       0.00002476       0.00001118      -0.00000477
I        1.43530044       8.20788362      12.09188315      -0.00001145       0.00000657      -0.00001269
I        6.93321691       3.39356926      15.43684537      -0.00000084       0.00001754       0.00001090
I        1.43840073       8.40617738      16.45340017       0.00002017      -0.00000206       0.00000988
I        5.35093770       7.09794971      14.24595655       0.00000213       0.00001066      -0.00000378
I        2.77996451       4.51624340       0.27830551      -0.00000517       0.00000355      -0.00001078
H        1.94986234       4.21771609      12.35726480       0.00000438      -0.00000818       0.00000926
H        6.30136797       7.48920953      10.85003484      -0.00000293       0.00000920       0.00000008
H        3.53950152       4.74727573      13.00410388       0.00001968      -0.00000380      -0.00000419
H        5.57152284       8.34793114       9.45166781       0.00000813      -0.00001471       0.00000094
H        2.67966460       3.35906988      13.75570092       0.00000712      -0.00001196      -0.00001267
H        4.71170557       6.95969009      10.20322203      -0.00001356      -0.00000121      -0.00000519
H        0.94516448       4.88328711      14.48295538      -0.00001148       0.00001221       0.00001445
H        5.84151355       6.30197407       8.14129159      -0.00001137      -0.00000711       0.00002523
H        1.71461271       6.19579356      13.74447006      -0.00001116      -0.00000723       0.00000493
H        6.53655198       5.51119771       9.46272032      -0.00000207      -0.00000435       0.00001093
H        2.40964300       5.40509939      15.06595115      -0.00001831      -0.00000278      -0.00001840
H        7.30600747       6.82372645       8.72429444       0.00000352       0.00000402       0.00000797
C        2.56099076       4.32769221      13.25823600      -0.00000822      -0.00001483      -0.00002174
C        5.69020996       7.37928187       9.94907807       0.00000678       0.00000425       0.00000068
Pb       4.90460073      17.05829318       0.21805816       0.00000613      -0.00000692       0.00001886
Pb       0.94343389      17.15760047       0.24930497       0.00002979      -0.00001565      -0.00000116
N        1.86859308       5.26599329      14.19141681       0.00003888      -0.00000484       0.00002315
N        6.38257514       6.44102298       9.01582900       0.00000095       0.00000962      -0.00001117
I        5.43028393      11.00232883      16.40060316       0.00001016       0.00000978       0.00000281
I        3.19567064      15.95875184      15.37240250      -0.00000565       0.00000561       0.00000538
I        5.42020433      11.12107991      12.03844738      -0.00001512       0.00000725      -0.00000380
I        3.08556731      15.74724032      11.05155828       0.00000665       0.00001797      -0.00001029
I        7.06971539      14.60089374       8.84741844      -0.00000832      -0.00001563      -0.00000585
I        1.43596301      12.26747783      14.24255019       0.00002100      -0.00000623       0.00002179
H        0.73003206      12.22077900       1.54871304      -0.00000523       0.00000156      -0.00000253
H        6.85832638      15.96296709      13.64169833       0.00002023       0.00001987      -0.00000268
H        1.52687185      10.81271337       0.76534899       0.00001364       0.00002136      -0.00001408
H        7.65547987      14.55496906      12.85853600       0.00000054      -0.00000426      -0.00000770
H        2.31912482      11.63676804       2.15001620       0.00002940       0.00001363       0.00003623
H        6.06640277      15.13873135      12.25694602      -0.00001989      -0.00001675       0.00001821
H        2.57862699      13.61920010       0.76986525       0.00000667      -0.00001042      -0.00004101
H        5.80685365      13.15637694      13.63716036      -0.00000019      -0.00002039      -0.00000020
H        1.82877855      12.85783061      -0.53633826      -0.00000168      -0.00001684      -0.00001699
H        5.09394083      14.48775937      14.39797168      -0.00000468      -0.00001009       0.00001001
H        3.29139631      12.28777986       0.00897205       0.00000027       0.00003351      -0.00000696
H        6.55655047      13.91782227      14.94341216      -0.00000652       0.00002387       0.00000754
C        1.68812321      11.77319403       1.26656504      -0.00003628      -0.00002874      -0.00000935
C        6.69728285      15.00244018      13.14050636       0.00001355      -0.00003310      -0.00000956
Pb       3.48077835       9.71731380      14.18889752      -0.00001913       0.00000483       0.00000143
Pb       7.44194571       9.61796891      14.15775389       0.00001311      -0.00001339      -0.00000914
N        2.38613803      12.69656995       0.32292976       0.00000738      -0.00001210       0.00003105
N        5.99925005      14.07902551      14.08409194      -0.00002807       0.00003619      -0.00001425
I       14.73898781       3.43954216      11.05943119       0.00000218      -0.00000319      -0.00000229
I        9.35839267       8.14827724      12.03595793       0.00000977       0.00002520       0.00001051
I       14.85628869       3.33402558      15.38094254      -0.00001044      -0.00000351      -0.00002936
I        9.36142188       8.34657016      16.39747338       0.00000585       0.00000291      -0.00001050
I       13.27408300       7.03839704      14.19007434      -0.00000415      -0.00001255      -0.00001265
I       10.70305845       4.45668565       0.22229260       0.00001178       0.00000274       0.00001443
H        9.87312501       4.15820565      12.30113094      -0.00001158      -0.00001751       0.00001996
H       14.22423521       7.42957293      10.79422920       0.00000907       0.00002619       0.00003469
H       11.46274020       4.68762844      12.94813372       0.00001097      -0.00000447      -0.00000627
H       13.49477740       8.28847722       9.39577067      -0.00001979      -0.00001248      -0.00000108
H       10.60278633       3.29939274      13.69954132       0.00000873       0.00000369      -0.00001136
H       12.63466879       6.90024903      10.14701601       0.00001430       0.00002053       0.00002267
H        9.63778309       6.13613382      13.68847060       0.00000555       0.00000142       0.00000927
H       15.22921361       6.76424366       8.66852325       0.00000210       0.00001140       0.00000773
H       10.33281516       5.34539086      15.00992290      -0.00000608      -0.00000496       0.00000755
H       13.76479028       6.24249090       8.08535290      -0.00003356       0.00000960      -0.00001053
H        8.86834533       4.82359481      14.42689787      -0.00000561      -0.00000759      -0.00000952
H       14.45968652       5.45170258       9.40684879      -0.00001372      -0.00001076       0.00002533
C       10.48419140       4.26806685      13.20215802      -0.00000307       0.00000534       0.00000121
C       13.61326822       7.31977735       9.89312846      -0.00001141      -0.00004384      -0.00001723
Pb      12.82768925      16.99874719       0.16213133      -0.00001514      -0.00000331       0.00001147
Pb       8.86650621      17.09806248       0.19331976      -0.00000155       0.00000342       0.00000252
N        9.79177398       5.20631617      14.13537790      -0.00000579       0.00001005       0.00000851
N       14.30575286       6.38153317       8.95995368       0.00002598      -0.00001865      -0.00003851
I       13.35336546      10.94278150      16.34467675       0.00001093       0.00000917       0.00000719
I       11.11876654      15.89920551      15.31645861      -0.00000679       0.00000564      -0.00000299
I       13.34320929      11.06152042      11.98253903      -0.00000261       0.00000455       0.00000092
I       11.00861163      15.68770905      10.99559960      -0.00001106       0.00000711      -0.00000417
I       14.99280181      14.54133002       8.79148665      -0.00000141       0.00001190       0.00000781
I        9.35906233      12.20788425      14.18663194      -0.00001183      -0.00000463       0.00000956
H        9.45004900      10.75313813       0.70942152      -0.00000315       0.00000350       0.00001516
H       13.98928574      15.07913531      12.20103918      -0.00000381      -0.00000658      -0.00001248
H       10.24214170      11.57732399       2.09410869       0.00001607       0.00000353      -0.00000341
H       14.78139271      15.90337178      13.58568523      -0.00001480      -0.00001524       0.00001684
H        8.65305656      12.16119398       1.49264797      -0.00001818      -0.00000193       0.00000312
H       15.57841348      14.49533442      12.80245975       0.00002014      -0.00000606      -0.00001293
H        9.75189075      12.79822130      -0.59234152       0.00000146      -0.00000153       0.00000225
H       13.01699909      14.42818272      14.34210541      -0.00000114       0.00001705       0.00001268
H       11.21450762      12.22826145      -0.04694582      -0.00000436       0.00000350       0.00001418
H       14.47965177      13.85831359      14.88750202      -0.00000915      -0.00000801       0.00000070
H       10.50165275      13.55967704       0.71386746       0.00000859       0.00001576      -0.00002627
H       13.72990668      13.09678345      13.58132292       0.00000695       0.00000978       0.00000403
C        9.61119868      11.71365557       1.21059968       0.00000188      -0.00002391      -0.00001706
C       14.62026232      14.94283942      13.08452953       0.00000995       0.00000893      -0.00001049
Pb      11.40383938       9.65770781      14.13301192       0.00000712       0.00001071      -0.00002236
Pb      15.36503026       9.55847335      14.10180134      -0.00001360      -0.00001832      -0.00001728
N       10.30921936      12.63702356       0.26696084      -0.00000140      -0.00000467       0.00001231
N       13.92230417      14.01945769      14.02820067      -0.00001183       0.00000946      -0.00001466
I        6.95003197      18.56771651       2.31510615       0.00002476       0.00001118      -0.00000477
I        1.56942745      23.27652396       3.29163723      -0.00001144       0.00000656      -0.00001269
I        7.06734392      18.46220960       6.63659945      -0.00000084       0.00001753       0.00001092
I        1.57252774      23.47481772       7.65315425       0.00002017      -0.00000207       0.00000988
I        5.48506471      22.16659005       5.44571063       0.00000213       0.00001066      -0.00000378
I        3.15470520      19.77039468       8.84406171      -0.00000516       0.00000355      -0.00001079
H        2.08398935      19.28635643       3.55701888       0.00000438      -0.00000818       0.00000926
H        6.43549498      22.55784987       2.04978892      -0.00000293       0.00000920       0.00000008
H        3.67362853      19.81591607       4.20385796       0.00001968      -0.00000380      -0.00000419
H        5.70564985      23.41657148       0.65142189       0.00000813      -0.00001471       0.00000094
H        2.81379161      18.42771022       4.95545500       0.00000712      -0.00001196      -0.00001267
H        4.84583258      22.02833043       1.40297611      -0.00001356      -0.00000121      -0.00000519
H        1.07929149      19.95192745       5.68270946      -0.00001148       0.00001221       0.00001445
H        5.97564057      21.37061440      -0.65895433      -0.00001147      -0.00000708       0.00002513
H        1.84873972      21.26443390       4.94422414      -0.00001116      -0.00000723       0.00000493
H        6.67067899      20.57983805       0.66247440      -0.00000205      -0.00000435       0.00001095
H        2.54377001      20.47373973       6.26570523      -0.00001831      -0.00000278      -0.00001840
H        7.44013448      21.89236679      -0.07595148       0.00000353       0.00000402       0.00000797
C        2.69511777      19.39633255       4.45799008      -0.00000822      -0.00001483      -0.00002174
C        5.82433697      22.44792221       1.14883215       0.00000676       0.00000425       0.00000066
Pb       4.77047372       1.98965284       9.01830408       0.00000613      -0.00000688       0.00001886
Pb       0.80930688       2.08896013       9.04955089       0.00002979      -0.00001562      -0.00000117
N        2.00272009      20.33463363       5.39117089       0.00003887      -0.00000485       0.00002316
N        6.51670215      21.50966332       0.21558308       0.00000103       0.00000959      -0.00001106
I        5.56441094      26.07096917       7.60035724       0.00001016       0.00000978       0.00000281
I        2.82092995       0.70460056       6.80664630      -0.00000566       0.00000561       0.00000538
I        5.55433134      26.18972025       3.23820146      -0.00001512       0.00000725      -0.00000380
I        2.71082662       0.49308904       2.48580208       0.00000664       0.00001797      -0.00001030
I        7.20384240      29.66953408       0.04717252      -0.00000832      -0.00001566      -0.00000585
I        1.57009002      27.33611817       5.44230427       0.00002100      -0.00000624       0.00002179
H        1.10477275      27.47493028      10.11446924      -0.00000523       0.00000156      -0.00000253
H        6.99245339      31.03160742       4.84145242       0.00002023       0.00001998      -0.00000268
H        1.90161254      26.06686465       9.33110519       0.00001364       0.00002136      -0.00001408
H        7.78960688      29.62360940       4.05829008       0.00000054      -0.00000428      -0.00000771
H        2.69386551      26.89091932      10.71577240       0.00002940       0.00001363       0.00003623
H        6.20052978      30.20737169       3.45670010      -0.00001989      -0.00001673       0.00001823
H        2.95336768      28.87335138       9.33562145       0.00000669      -0.00001044      -0.00004099
H        5.94098066      28.22501728       4.83691444      -0.00000019      -0.00002039      -0.00000019
H        2.20351924      28.11198190       8.02941794      -0.00000169      -0.00001689      -0.00001696
H        5.22806784      29.55639971       5.59772576      -0.00000468      -0.00001009       0.00001001
H        3.66613700      27.54193114       8.57472825       0.00000028       0.00003352      -0.00000697
H        6.69067748      28.98646261       6.14316624      -0.00000653       0.00002387       0.00000754
C        2.06286390      27.02734531       9.83232124      -0.00003630      -0.00002873      -0.00000937
C        6.83140986      30.07108052       4.34026044       0.00001356      -0.00003319      -0.00000956
Pb       3.61490536      24.78595414       5.38865160      -0.00001913       0.00000484       0.00000143
Pb       7.57607272      24.68660925       5.35750797       0.00001311      -0.00001339      -0.00000914
N        2.76087872      27.95072123       8.88868596       0.00000738      -0.00001204       0.00003103
N        6.13337706      29.14766585       5.28384602      -0.00002807       0.00003616      -0.00001426
I       14.87311482      18.50818250       2.25918527       0.00000217      -0.00000319      -0.00000229
I        9.49251968      23.21691758       3.23571201       0.00000977       0.00002520       0.00001051
I       14.99041570      18.40266592       6.58069662      -0.00001043      -0.00000353      -0.00002933
I        9.49554889      23.41521050       7.59722746       0.00000585       0.00000290      -0.00001050
I       13.40821001      22.10703738       5.38982842      -0.00000416      -0.00001255      -0.00001265
I       11.07779914      19.71083693       8.78804880       0.00001178       0.00000274       0.00001443
H       10.00725202      19.22684599       3.50088502      -0.00001158      -0.00001751       0.00001996
H       14.35836222      22.49821327       1.99398328       0.00000907       0.00002619       0.00003468
H       11.59686721      19.75626878       4.14788780       0.00001097      -0.00000447      -0.00000627
H       13.62890441      23.35711756       0.59552475      -0.00001979      -0.00001248      -0.00000108
H       10.73691334      18.36803308       4.89929540       0.00000873       0.00000369      -0.00001136
H       12.76879580      21.96888937       1.34677009       0.00001430       0.00002053       0.00002268
H        9.77191010      21.20477416       4.88822468       0.00000555       0.00000142       0.00000927
H       15.36334062      21.83288400      -0.13172267       0.00000211       0.00001140       0.00000773
H       10.46694217      20.41403120       6.20967698      -0.00000608      -0.00000497       0.00000755
H       13.89891730      21.31113123      -0.71489302      -0.00003366       0.00000963      -0.00001064
H        9.00247234      19.89223515       5.62665195      -0.00000561      -0.00000759      -0.00000952
H       14.59381353      20.52034292       0.60660287      -0.00001370      -0.00001076       0.00002535
C       10.61831841      19.33670719       4.40191210      -0.00000307       0.00000534       0.00000121
C       13.74739523      22.38841769       1.09288254      -0.00001142      -0.00004384      -0.00001725
Pb      12.69356224       1.93010685       8.96237725      -0.00001514      -0.00000328       0.00001147
Pb       8.73237920       2.02942214       8.99356568      -0.00000155       0.00000345       0.00000251
N        9.92590099      20.27495651       5.33513198      -0.00000579       0.00001005       0.00000851
N       14.43987987      21.45017351       0.15970776       0.00002606      -0.00001869      -0.00003840
I       13.48749247      26.01142184       7.54443083       0.00001094       0.00000916       0.00000719
I       10.74402585       0.64505423       6.75070241      -0.00000680       0.00000564      -0.00000299
I       13.47733630      26.13016076       3.18229311      -0.00000261       0.00000455       0.00000092
I       10.63387094       0.43355777       2.42984340      -0.00001107       0.00000710      -0.00000417
I       15.12692882      29.60997036      -0.00875927      -0.00000141       0.00001186       0.00000781
I        9.49318934      27.27652459       5.38638602      -0.00001184      -0.00000462       0.00000956
H        9.82478969      26.00728941       9.27517772      -0.00000315       0.00000350       0.00001516
H       14.12341275      30.14777565       3.40079326      -0.00000381      -0.00000656      -0.00001247
H       10.61688239      26.83147527      10.65986489       0.00001607       0.00000353      -0.00000341
H       14.91551972      30.97201211       4.78543932      -0.00001480      -0.00001514       0.00001684
H        9.02779725      27.41534526      10.05840417      -0.00001818      -0.00000193       0.00000312
H       15.71254049      29.56397476       4.00221383       0.00002014      -0.00000608      -0.00001294
H       10.12663144      28.05237259       7.97341468       0.00000145      -0.00000159       0.00000228
H       13.15112610      29.49682306       5.54185949      -0.00000115       0.00001704       0.00001268
H       11.58924831      27.48241273       8.51881038      -0.00000435       0.00000350       0.00001418
H       14.61377878      28.92695393       6.08725610      -0.00000915      -0.00000801       0.00000070