40
Lattice="12.678022859081246 0.05397846147646072 -0.061230481545586746 -0.06145787070865964 12.670232630869886 -0.18903580917119023 0.05507226948214377 0.18716817342520978 12.725391896341348" Properties=species:S:1:pos:R:3:forces:R:3 energy=-122.87289608026559 stress="0.005668724220520602 -4.987270703417723e-06 0.0005516575269705472 -4.987270703417723e-06 0.005713470466377786 1.740094266872583e-06 0.0005516575269705472 1.740094266872583e-06 0.005990350677710036" free_energy=-122.87289608026559 pbc="T T T"
Cs       4.56416491      21.72431544       2.59765193       0.00001967      -0.00000373      -0.00002960
Cs      -2.48190048      15.37006077       3.47165321       0.00000756      -0.00000646       0.00000210
Cs      -2.63584159      15.46177289       9.64923112       0.00001095      -0.00000380      -0.00000051
Cs       4.41035601      21.81606204       8.77511316       0.00001775       0.00000024       0.00000750
Cs       3.88461170      15.49061404       9.80375537      -0.00001082      -0.00000321       0.00000045
Cs      -1.74716369      21.79091195       8.99070006      -0.00002737      -0.00000705       0.00003740
Cs      -1.95614268      21.69553590       2.44289895       0.00000087      -0.00001023       0.00000648
Cs       3.67572481      15.39520795       3.25591970       0.00000533       0.00000098      -0.00002809
Pb      -5.34403116      12.23096553       6.24849411       0.00000864       0.00000252       0.00001790
Pb       0.96423343      18.59301948       6.12337588       0.00000993       0.00000768      -0.00000461
Pb      -5.37476059      18.56607351       6.15399128      -0.00000923      -0.00001425       0.00000999
Pb       0.99496374      12.25791956       6.21784714      -0.00000487      -0.00000083      -0.00000154
Pb      -5.37158741      12.13735832      -0.11418847      -0.00002871      -0.00001316       0.00000436
Pb       0.93670671      18.49946736      -0.23932231      -0.00000452       0.00001062      -0.00002070
Pb      -5.40229446      18.47248691      -0.20870470      -0.00002333       0.00001872      -0.00000574
Pb       0.96741576      12.16434977      -0.14485397       0.00001963       0.00000075       0.00003924
I       -5.80325630      15.38834452       5.66069173       0.00001003       0.00000674       0.00002120
I        0.38772060      21.75157693       5.65100917       0.00000643       0.00003089       0.00000213
I        7.73170429      21.79778484       6.58600701       0.00001498      -0.00001862       0.00001247
I        1.54082315      15.43445661       6.59559595      -0.00001101       0.00000281       0.00002600
I        4.12889959      19.10955340       5.55401041       0.00001993       0.00000510      -0.00000549
I       -2.23566174      25.43396287       6.58325081      -0.00004967       0.00001227       0.00001615
I       -2.20040972      18.07650705       6.69284480      -0.00001384      -0.00000590      -0.00002320
I        4.16417987      11.75215118       5.66354395       0.00001914      -0.00000330      -0.00001709
I        6.69899329      21.68501979      -0.74208917       0.00001782       0.00001648      -0.00002575
I        0.50809410      15.32174212      -0.73253794       0.00001399       0.00000231      -0.00003634
I       -4.77068826      15.50108329      12.98898389       0.00002925       0.00000231      -0.00000777
I        1.42038131      21.86437145      12.97926254      -0.00002871      -0.00001084       0.00002051
I       -2.18258443      19.17633052      11.94727409       0.00000839      -0.00001645      -0.00000452
I        4.19229513      12.88441222      13.10431181       0.00000149      -0.00001278       0.00001095
I        4.11105017      18.00983102       0.29939433      -0.00001286       0.00000138       0.00002407
I       -2.26385019      24.30170367      -0.85766564      -0.00001396      -0.00000157       0.00000443
I       -5.93631551      25.43406895       9.23638945      -0.00000212       0.00000737      -0.00001724
I        1.51728396      19.13063337       9.29474964      -0.00002269       0.00000544       0.00001101
I        7.86482772      11.75207118       3.01039132      -0.00001300      -0.00001210      -0.00001455
I        0.41125211      18.05542512       2.95196538      -0.00000390       0.00000256       0.00000276
I       -4.84930289      19.01012023       2.96267602       0.00000576       0.00000587       0.00006890
I        0.37514381      25.36747178       2.84305123       0.00000659      -0.00001435      -0.00002265
I        6.77776493      18.17598880       9.28407860       0.00001497       0.00000599      -0.00006317
I        1.55329274      11.81861114       9.40367227       0.00001150       0.00000960      -0.00001744
