768
Lattice="25.62772557592309 -0.0028270208384106343 0.05710735460182048 0.10482260132218972 25.723409477736357 0.047260622994914694 -0.09656011532637802 -0.043133790745477865 25.624327926327204" Properties=species:S:1:pos:R:3:forces:R:3 energy=-3656.31072408858 stress="0.0037555867723163753 -0.0005265462932437808 0.0002168415639261341 -0.0005265462932437808 0.002579056740471317 0.00011564539497502794 0.0002168415639261341 0.00011564539497502794 0.003772924640245682" free_energy=-3656.31072408858 pbc="T T T"
H       10.73967735       8.76071080       4.07264450      -0.00000043       0.00001432       0.00000203
H        8.82638327       4.80962026       3.81847050      -0.00002114       0.00002024       0.00000106
H       10.37680723       3.35316425      11.57196259       0.00000919       0.00000318       0.00000424
H        9.72973838       8.68872052      11.43970909      -0.00000570       0.00000108       0.00000280
H       10.76958356      10.26177344       5.84857230       0.00000364      -0.00000724       0.00001539
H        8.70432194       3.22433645       2.12323322       0.00000340      -0.00000925      -0.00000974
H        2.86603383       8.99662668      12.10334341      -0.00001316      -0.00000358       0.00001135
H        8.19483392       9.03058568       9.73711432      -0.00000132       0.00000012       0.00000301
H        4.19739409       3.06770434       2.75021588       0.00000457       0.00000926      -0.00000220
H        4.73714214      11.13308058       4.08240383       0.00001049       0.00002325       0.00001589
H        2.15979456      10.45434260      11.41537974      -0.00000174       0.00000825      -0.00001253
H        9.03132500      10.45223365       9.12054168       0.00000668       0.00000666       0.00000071
H        2.09403672       2.27863130       3.84353697       0.00002320       0.00003374       0.00000648
H        2.64270253      10.48282690       5.31099144       0.00000478      -0.00001112      -0.00001107
H        3.06359096      11.17114265       9.20653189      -0.00001639       0.00001413      -0.00000003
H        3.53603755       2.23561510      11.62885803      -0.00003511       0.00001117       0.00001400
H        9.27868658       9.04583872       2.29170868       0.00000684      -0.00000874      -0.00001281
H        1.83154138       9.03755631       4.72129827      -0.00001021      -0.00000974      -0.00000835
H        8.66234668       1.98914722      10.84584889      -0.00000357      -0.00000009       0.00000228
H        2.18444517       3.19076351      12.20796579       0.00002564      -0.00001034      -0.00003131
C       10.04787920       9.60828111       4.07315405      -0.00000113       0.00001498       0.00002766
C        3.50235835       9.53502981       3.70677870      -0.00001815      -0.00000080       0.00001014
C        3.62679497       9.54341841      10.31400288       0.00002443       0.00001027      -0.00003044
C        3.05705551       3.89149759      10.52253183       0.00001268       0.00002290      -0.00000902
N        4.16194944       3.83361435       3.42688701      -0.00000793       0.00001381      -0.00000179
N        4.54109144      10.31251369       3.50920045       0.00000191       0.00000674       0.00000428
N        2.83735457       9.69106269      11.35318715       0.00000009      -0.00001589      -0.00000041
N        8.97570504       9.68690348       9.79901928      -0.00000782      -0.00001132      -0.00000161
N        2.18321920       3.11463741       4.42278412      -0.00003048      -0.00000481      -0.00000198
N        2.60352996       9.70239621       4.64918057      -0.00001063       0.00000308       0.00001322
N        8.81955152       2.84907584      10.32100005      -0.00000695      -0.00000898       0.00000080
N        2.93949741       3.05710014      11.52874074       0.00000496      -0.00004267       0.00002840
Pb       6.48367925       0.28219677      13.48803493      -0.00000573       0.00000300      -0.00000764
Pb      25.70939839       0.30583649      13.83440755      -0.00000565      -0.00001420       0.00000794
Pb       6.58555708       6.71529018       7.03081909       0.00002025       0.00000193      -0.00001344
Pb       6.53712883       0.28525347       7.11627597      -0.00000404       0.00001023       0.00001094
I        9.62447898       0.35379060      13.00314463       0.00001055      -0.00000501      -0.00000565
I        3.27454663      13.46362926      14.42728641       0.00001417       0.00000150      -0.00000310
I        3.27017624       0.05713844       6.48579091       0.00001587      -0.00000142       0.00001011
I        9.78326521      25.72079299       7.98024160      -0.00000380       0.00000621       0.00000162
I        6.48549450       9.94781023      13.27450721       0.00000494      -0.00000588       0.00000066
I        6.56288696       3.53080837       0.59939639       0.00000032       0.00000757       0.00000473
I        6.85113455       3.47722363       7.14384448      -0.00000573      -0.00000364      -0.00000139
I        6.48219775       9.91620244       6.99541226       0.00000355       0.00000129      -0.00000541
I        7.26118217      12.90457611       3.94308581      -0.00000474      -0.00000014       0.00001786
I       24.98969570       0.62210310       4.15986993       0.00000643      -0.00000061      -0.00000672
I        0.80637208      -0.02144884      10.51305826      -0.00000247       0.00000134       0.00000595
I        5.73827477       0.52787033      10.31875851       0.00000617       0.00000694       0.00000082
H        3.22015848       4.80449486       4.98437444      -0.00000037       0.00002494       0.00000676
H        3.37804568       8.68197019       3.03232722       0.00000680      -0.00000325      -0.00000525
H        4.31555186       8.69299649      10.31558685      -0.00001810       0.00000575       0.00000444
H        2.35800434       4.73259203      10.48117714      -0.00001748       0.00002561      -0.00001243
H        4.89606187       4.54601953       3.39782048      -0.00000601      -0.00000408      -0.00000636
H        5.17202878      10.12495247       2.72391263       0.00001010      -0.00000947      -0.00001694
H       10.91275844       5.31994540      10.44204368      -0.00001193      -0.00000504      -0.00001405
H        3.96472346       4.50116586       8.82595266       0.00000758       0.00000174       0.00000235
H        9.48481278      11.24289950       5.16975444      -0.00000632       0.00000584      -0.00000749
H        9.97988912       2.23981268       2.81411772       0.00000105       0.00000600      -0.00000131
H        9.64526734       5.12480190       9.26508970       0.00001941      -0.00000166       0.00001000
H        4.63662818       3.03607451       9.53566280      -0.00000454       0.00001037      -0.00000069
H        8.57133548      10.50552870       2.97352406      -0.00001143       0.00000461      -0.00000236
H       10.98065904       3.06338848       4.94472301      -0.00000990       0.00000837      -0.00000889
H        8.22982974       3.03344206       9.50296845       0.00000251       0.00000863      -0.00002400
H       11.13321909      11.09207001      10.34109033       0.00000118      -0.00000420      -0.00000634
H        1.50009880       3.25542900       5.17205821       0.00000100      -0.00001032       0.00000987
H       10.32100016       4.56810232       5.57735660       0.00000419      -0.00001010      -0.00001463
H        4.33954859      10.17950476       8.52839012       0.00000342      -0.00000379       0.00000008
H       11.55075238      10.10356470      11.71790558      -0.00000690       0.00000172       0.00000535
C        3.18889869       3.94971807       4.30127125       0.00001588      -0.00005839      -0.00001029
C        9.49658325       3.94460999       3.84164023       0.00001021      -0.00002591       0.00000056
C        9.79049291       3.64732297      10.69571859      -0.00001897       0.00000877      -0.00001246
C        9.87041541       9.52422595      10.74621546      -0.00000147       0.00001010      -0.00000260
N       10.08389769      10.41913476       5.10414519       0.00000571      -0.00003312      -0.00003151
N        9.40613779       3.08290575       2.85591300      -0.00000603       0.00000304       0.00001467
N       10.11538217       4.77280073      10.10264440       0.00000610      -0.00000184       0.00000935
N        3.95089827       3.79441770       9.56520692      -0.00000846      -0.00002611      -0.00000520
N        9.24437582       9.73972862       3.04228401       0.00000523      -0.00000887       0.00000256
N       10.32724601       3.84480986       4.85432572       0.00001118      -0.00000409       0.00002508
N        3.65429657      10.34172401       9.27257181       0.00000220      -0.00001724       0.00002592
N       10.92411219      10.28507323      10.92855301      -0.00000441      -0.00000150       0.00000137
Pb       0.13377883       6.71237681      13.76544904       0.00000704      -0.00000453      -0.00000465
Pb       6.53362502       6.70976223      13.43262460       0.00000192       0.00000427       0.00001554
Pb       0.13757575       0.28952399       7.34584528      -0.00000817      -0.00000506       0.00000674
Pb       0.19488967       6.73597661       7.35731325       0.00000483      -0.00000470       0.00000881
I        3.32113485       6.74174030      13.52544096      -0.00000424       0.00000386      -0.00000179
I        9.72726026       6.78660549      13.69927082       0.00000527      -0.00000057      -0.00000074
I        9.81192591       6.78665837       7.01683144      -0.00000942       0.00000168       0.00000060
I        3.40662196       6.64408633       7.31242749       0.00000354       0.00000300       0.00000196
I       -0.09254842       3.51862245      13.52684691       0.00000362       0.00002249       0.00000474
I        0.18515261       9.97973178       1.16248942       0.00000471       0.00000101       0.00000296
I        0.09282182       9.94143933       7.36094904       0.00000210      -0.00000187      -0.00000146
I        0.16901145       3.50149717       7.50329259       0.00000047       0.00000574       0.00000464
I       13.15168823       6.77077093       4.18329998      -0.00000257      -0.00000039      -0.00001392
I        6.47069356       6.68160564       3.82921416       0.00000487       0.00000234       0.00001905
I        6.70813179       6.78658144      10.23159956       0.00000660       0.00000146      -0.00000342
I        0.19468297       6.89586187      10.55908766       0.00000096       0.00000089       0.00000163
H       10.69139925       8.73912721      16.88486228       0.00000660       0.00001660       0.00000528
H        8.77809114       4.78803005      16.63073075      -0.00000774       0.00000340       0.00000028
H       10.32842634       3.33151367      24.38412693       0.00001829      -0.00000641       0.00002186
H        9.68146754       8.66715620      24.25188611      -0.00000633       0.00001983       0.00000105
H       10.72127225      10.24019788      18.66078313      -0.00000740       0.00000213      -0.00000192
H        8.65600731       3.20281560      14.93542641       0.00000776       0.00000153       0.00000499
H        2.81772830       8.97504709      24.91551068      -0.00000876       0.00000470      -0.00000246
H        8.14653809       9.00898685      22.54930237       0.00000739      -0.00000336      -0.00000053
H        4.14903234       3.04613077      15.56233565       0.00000909       0.00001182      -0.00000805
H        4.68885797      11.11152526      16.89467538      -0.00000444       0.00001640       0.00000630
H        2.11152020      10.43277667      24.22754091      -0.00000622       0.00000509       0.00000202
H        8.98301320      10.43063336      21.93270467      -0.00000622       0.00000227       0.00000355
H        2.04573823       2.25706539      16.65579038       0.00000721       0.00000653       0.00000378
H        2.59439237      10.46118832      18.12316782      -0.00000341       0.00002452       0.00002420
H        3.01534977      11.14957098      22.01870819       0.00000173      -0.00000318      -0.00000348
H        3.48778352       2.21406605      24.44102416      -0.00002882       0.00002819      -0.00000131
H        9.23046714       9.02426485      15.10387943       0.00001407      -0.00002331      -0.00000899
H        1.78327452       9.01592382      17.53340294      -0.00001196      -0.00002282      -0.00000674
H        8.61392067       1.96759949      23.65791426      -0.00000488      -0.00000149       0.00000612
H        2.13615004       3.16917128      25.02010333       0.00001874       0.00000474      -0.00001946
C        9.99961085       9.58670559      16.88534832       0.00000240      -0.00001302       0.00000930
C        3.45411728       9.51346329      16.51895459       0.00000494      -0.00000196      -0.00001125
C        3.57851535       9.52183178      23.12617753       0.00001285      -0.00000904      -0.00001000
C        3.00876242       3.86992888      23.33468058      -0.00000334      -0.00001098       0.00001756
N        4.11361842       3.81205630      16.23899165      -0.00001955      -0.00001182       0.00000899
N        4.49284100      10.29097516      16.32143616       0.00000872      -0.00000844      -0.00000953
N        2.78906728       9.66948457      24.16535467      -0.00000328      -0.00000446      -0.00000691
N        8.92740476       9.66531166      22.61119214      -0.00000755      -0.00000801      -0.00001260
N        2.13495487       3.09307713      17.23502216       0.00000928       0.00001500      -0.00000275
N        2.55525429       9.68077987      17.46133192      -0.00001136       0.00000020       0.00000113
N        8.77119488       2.82753064      23.13309307       0.00000805       0.00002069      -0.00000538
N        2.89121788       3.03553096      24.34089178       0.00000416      -0.00002928       0.00000321
Pb       6.53197316       0.30374305       0.67586183       0.00000755       0.00000409      -0.00000113
Pb      25.75768281       0.32740551       1.02225387       0.00000145      -0.00000909       0.00000522
Pb       6.53728732       6.69370797      19.84297622       0.00000486       0.00001064      -0.00000202
Pb       6.48883663       0.26367481      19.92843149      -0.00000975       0.00000775       0.00000105
I        9.67275560       0.37535799       0.19094989      -0.00001099      -0.00000436      -0.00000433
I        3.32282713      13.48521663       1.61512872       0.00001192       0.00000060       0.00000115
I        3.22190924       0.03552924      19.29794067      -0.00000117       0.00000366       0.00001041
I        9.73499657      25.69924885      20.79239901      -0.00000173      -0.00000605       0.00000259
I        6.53377047       9.96935336       0.46230040       0.00000626       0.00000101      -0.00000287
I        6.51461469       3.50926585      13.41154817      -0.00000584       0.00000164       0.00000127
I        6.80279193       3.45564673      19.95594417      -0.00000160      -0.00000364      -0.00000129
I        6.43395271       9.89462512      19.80758568      -0.00000559       0.00000165      -0.00000233
I        7.21292621      12.88302390      16.75525934       0.00000324      -0.00000552       0.00001167
I       24.94143413       0.60056473      16.97203770       0.00000930      -0.00000566      -0.00000219
I        0.75809940      -0.04302042      23.32522362       0.00000526      -0.00000265       0.00000770
I        5.69000099       0.50631903      23.13092031       0.00000242       0.00000128       0.00000072
H        3.17191597       4.78295174      17.79652199      -0.00000224       0.00000365       0.00001513
H        3.32984503       8.66042279      15.84447133       0.00000085      -0.00000070      -0.00000841
H        4.26725521       8.67139708      23.12776224       0.00000137      -0.00000767       0.00001085
H        2.30967913       4.71099558      23.29330757      -0.00001976       0.00003069       0.00000793
H        4.84772857       4.52446086      16.20987827      -0.00000240      -0.00000899       0.00000567
H        5.12380564      10.10344937      15.53616159       0.00000005      -0.00000679      -0.00000443
H       10.86452725       5.29829064      23.25426349      -0.00002772      -0.00000584      -0.00001474
H        3.91643658       4.47963070      21.63811747       0.00001504      -0.00000648       0.00000452
H        9.43652886      11.22133480      17.98192332       0.00000999      -0.00001411      -0.00000018
H        9.93158315       2.21826559      15.62624907       0.00000247       0.00001253       0.00001113
H        9.59707349       5.10323228      22.07725656       0.00002484      -0.00000480       0.00002224
H        4.58838678       3.01456785      22.34784231       0.00001023      -0.00002460      -0.00001651
H        8.52310946      10.48396132      15.78566661      -0.00001512       0.00001502       0.00000639
H       10.93238561       3.04175140      17.75687632       0.00000136      -0.00000345      -0.00000579
H        8.18151859       3.01194125      22.31503829      -0.00001534       0.00000042      -0.00002381
H       11.08490414      11.07050961      23.15321784      -0.00000609       0.00000377      -0.00000664
H        1.45187542       3.23387827      17.98433224      -0.00002265      -0.00002002       0.00001022
H       10.27274340       4.54644538      18.38957728      -0.00000117       0.00000114       0.00000116
H        4.29129631      10.15791329      21.34057384      -0.00001007       0.00000572       0.00000802
H       11.50246265      10.08203211      24.53004741       0.00000622      -0.00000732       0.00000330
C        3.14062178       3.92816213      17.11343593       0.00002856       0.00000152      -0.00003350
C        9.44829231       3.92301864      16.65385549      -0.00000384      -0.00000253      -0.00001432
C        9.74216339       3.62571975      23.50786560       0.00000143       0.00001770      -0.00001044
C        9.82212666       9.50265582      23.55838117      -0.00000204       0.00000201      -0.00000218
N       10.03560556      10.39756124      17.91633825       0.00000184      -0.00000552      -0.00001734
N        9.35783335       3.06135702      15.66809212      -0.00000596      -0.00001469      -0.00000065
N       10.06713803       4.75118994      22.91482381      -0.00001147      -0.00000873      -0.00000286
N        3.90262534       3.77288137      22.37737162      -0.00001902      -0.00000673       0.00000734
N        9.19614175       9.71815716      15.85445212      -0.00001552       0.00001316      -0.00000230
N       10.27896977       3.82317601      17.66652456       0.00000552      -0.00000594       0.00000199
N        3.60604124      10.32014193      22.08475105       0.00000110       0.00001060      -0.00000417
N       10.87581560      10.26351913      23.74069551       0.00000316      -0.00001262       0.00002090
Pb       0.18205521       6.73394354       0.95328990       0.00001458       0.00000746       0.00000098
Pb       6.58189456       6.73130940       0.62046142       0.00000873       0.00000408       0.00000221
Pb       0.08928374       0.26794438      20.15802307       0.00000898      -0.00001124      -0.00001346
Pb       0.14662011       6.71440303      20.16948217       0.00000094      -0.00000105       0.00001356
I        3.36940684       6.76330065       0.71329140       0.00000353       0.00000081      -0.00000258
I        9.77553182       6.80816515       0.88711138      -0.00000048      -0.00000085       0.00000210
I        9.76365213       6.76504192      19.82900874      -0.00000083       0.00000190       0.00000221
I        3.35835097       6.62253465      20.12459484      -0.00000475       0.00000569      -0.00000628
I       -0.04427821       3.54019187       0.71467890       0.00000389       0.00000245       0.00000208
I        0.13686290       9.95816435      13.97463920       0.00000150       0.00000348       0.00000136
I        0.04455040       9.91986785      20.17311722       0.00000215      -0.00000368      -0.00000774
I        0.12072431       3.47992564      20.31550765       0.00000139      -0.00000592      -0.00000427
I       13.10337814       6.74916795      16.99546285       0.00000183       0.00000379      -0.00000478
I        6.42239796       6.66003819      16.64138069       0.00000507      -0.00000524      -0.00000579
I        6.65985309       6.76496952      23.04375939       0.00000716       0.00000097       0.00000244
I        0.14641369       6.87430065      23.37125643      -0.00000172       0.00000060       0.00000008
H       10.79206758      21.62235191       4.09626878      -0.00000295       0.00000404      -0.00000082
H        8.87871263      17.67127816       3.84213011      -0.00001250       0.00000846       0.00000578
H       10.42902046      16.21472296      11.59563145       0.00000906       0.00000097       0.00001014
H        9.78220736      21.55051664      11.46344056      -0.00000731      -0.00001393       0.00000824
H       10.82208474      23.12338667       5.87222062       0.00000168      -0.00000514       0.00000982
H        8.75671187      16.08592567       2.14695024       0.00000904       0.00000896       0.00000595
H        2.91834867      21.85825186      12.12685978       0.00000097       0.00001052      -0.00000021
H        8.24720712      21.89225044       9.76090039       0.00000669       0.00000376       0.00000200
H        4.24968645      15.92941490       2.77384023       0.00000595      -0.00000875      -0.00001506
H        4.78923512      23.99498411       4.10636503       0.00000086      -0.00000145       0.00000133
H        2.21220140      23.31603070      11.43893211       0.00000003       0.00000054      -0.00000990
H        9.08364009      23.31388013       9.14420803       0.00000483      -0.00000535       0.00001098
H        2.14638679      15.14034540       3.86726880       0.00000855       0.00000759       0.00001034
H        2.69476402      23.34422620       5.33456800      -0.00000288      -0.00001570      -0.00000130
H        3.11610344      24.03288544       9.23015159      -0.00001795       0.00000453       0.00000593
H        3.58853193      15.09717940      11.65227428      -0.00001370       0.00001324       0.00000020
H        9.33104791      21.90757007       2.31537574      -0.00000142       0.00000575      -0.00000495
H        1.88390704      21.89889844       4.74458818       0.00000999       0.00000924       0.00000095
H        8.71444751      14.85090967      10.86937545       0.00000670       0.00001235       0.00000449
H        2.23697088      16.05223287      12.23163140      -0.00001405       0.00000688       0.00000241
C       10.10030443      22.46995065       4.09681010       0.00000502       0.00001138       0.00000318
C        3.55479906      22.39676363       3.73037204       0.00002483       0.00003284      -0.00000581
C        3.67918639      22.40507795      10.33756026       0.00000983      -0.00000230      -0.00000290
C        3.10941107      16.75319269      10.54621022       0.00001651      -0.00000742      -0.00000676
N        4.21427818      16.69532389       3.45051388      -0.00001282       0.00000693       0.00001665
N        4.59343088      23.17444506       3.53303776       0.00000942      -0.00000408      -0.00000980
N        2.88971847      22.55271344      11.37672505      -0.00000654      -0.00001143       0.00000980
N        9.02806349      22.54859397       9.82273755       0.00000082      -0.00000381      -0.00000455
N        2.23560843      15.97633987       4.44652506       0.00000948       0.00001600      -0.00000486
N        2.65580181      22.56387501       4.67265876      -0.00000109       0.00001390       0.00000464
N        8.87177186      15.71084378      10.34457573      -0.00000717      -0.00000820      -0.00002024
N        2.99196130      15.91866395      11.55232352      -0.00000260       0.00001763      -0.00001412
Pb       6.53603461      13.14389402      13.51168371       0.00000554      -0.00000817      -0.00000283
Pb      25.76178381      13.16751416      13.85810417       0.00000464       0.00001269      -0.00000193
Pb       6.63795907      19.57702371       7.05446893       0.00000056      -0.00001093      -0.00001689
Pb       6.58946134      13.14695715       7.13994688      -0.00000730      -0.00000884      -0.00000914
I        9.67684236      13.21550355      13.02676914      -0.00000837      -0.00000130      -0.00000070
I        3.22217686       0.60198614      14.40356247      -0.00000425       0.00001168       0.00000786
I        3.32250309      12.91893227       6.50958296       0.00001820       0.00001092       0.00000765
I        9.73077647      12.85914251       7.95660175       0.00000043      -0.00000358       0.00000600
I        6.53778810      22.80952838      13.29827092       0.00000550      -0.00002043       0.00000154
I        6.61529303      16.39250772       0.62312449       0.00000382       0.00000369       0.00000368
I        6.90338202      16.33893007       7.16741723      -0.00000210       0.00000534      -0.00000136
I        6.53470153      22.77791880       7.01903501       0.00000301      -0.00001102       0.00000058
I        7.20890216       0.04294077       3.91944145      -0.00000661       0.00000127       0.00000712
I       25.04205351      13.48380472       4.18357382       0.00000639       0.00000125       0.00000102
I        0.85871457      12.84025447      10.53675778      -0.00000306       0.00000961       0.00000952
I        5.79061234      13.38962961      10.34241654       0.00000150      -0.00000036       0.00000017
H        3.27258897      17.66619052       5.00807028      -0.00001414      -0.00001352      -0.00000585
H        3.43072958      21.54375982       3.05580533      -0.00001704      -0.00001672       0.00000403
H        4.36789731      21.55461906      10.33912704      -0.00000839       0.00000736       0.00000150
H        2.41033427      17.59427442      10.50501319      -0.00000973      -0.00000236       0.00000664
H        4.94839666      17.40771976       3.42141739       0.00000278       0.00001188       0.00000420
H        5.22451310      22.98706146       2.74782425      -0.00001499      -0.00001083       0.00000803
H       10.96522027      18.18150302      10.46580609      -0.00001550       0.00000152      -0.00000753
H        4.01692316      17.36308973       8.84962189       0.00000312       0.00000356      -0.00001014
H        9.53734176      24.10457732       5.19345287      -0.00000369      -0.00000318      -0.00001212
H       10.03231038      15.10147100       2.83788409       0.00000402       0.00000361      -0.00000061
H        9.69776703      17.98652233       9.28879090       0.00001438       0.00000257       0.00000593
H        4.68893495      15.89794801       9.55911109       0.00000982      -0.00001867       0.00000013
H        8.62377048      23.36728051       2.99723209       0.00000253      -0.00001217       0.00000381
H       11.03304178      15.92515864       4.96845402      -0.00000664       0.00000632      -0.00000658
H        8.28211196      15.89529522       9.52651726      -0.00000047       0.00000459      -0.00000870
H       11.18557853      23.95382510      10.36459840       0.00000224      -0.00000384      -0.00000075
H        1.55252806      16.11712805       5.19583718      -0.00002547      -0.00001632       0.00000663
H       10.37333949      17.42987566       5.60102993      -0.00000212      -0.00000256      -0.00000036
H        4.39202955      23.04121509       8.55199981       0.00000053      -0.00000503       0.00000053
H       11.60320759      22.96540791      11.74145626      -0.00000015      -0.00000530      -0.00000362
C        3.24128307      16.81141843       4.32496150       0.00003269      -0.00001091      -0.00001881
C        9.54893948      16.80628906       3.86533628      -0.00000705      -0.00001292      -0.00001435
C        9.84277812      16.50897640      10.71937178      -0.00001032       0.00000553      -0.00000083
C        9.92283204      22.38598395      10.76989090      -0.00001054       0.00001024      -0.00001483
N       10.13638470      23.28078462       5.12781369      -0.00000046       0.00000593      -0.00000103
N        9.45852483      15.94454314       2.87964268      -0.00000547       0.00000126       0.00000073
N       10.16781012      17.63444199      10.12635396      -0.00000901       0.00000055      -0.00000713
N        4.00317473      16.65625363       9.58879613      -0.00001147      -0.00001686       0.00001522
N        9.29678077      22.60144948       3.06596265       0.00000286      -0.00000840      -0.00000421
N       10.37960262      16.70655376       4.87802806       0.00001105      -0.00001546       0.00001375
N        3.70676494      23.20343347       9.29616989       0.00000660       0.00000427       0.00000002
N       10.97652761      23.14685829      10.95212223      -0.00000298       0.00001016       0.00000306
Pb       0.18616175      19.57407151      13.78905485      -0.00001243       0.00001793       0.00001647
Pb       6.58599782      19.57148095      13.45628953      -0.00000079      -0.00001682       0.00000087
Pb       0.18988584      13.15122396       7.36954340       0.00000707       0.00000396       0.00000002
Pb       0.24726679      19.59769317       7.38093057       0.00000925       0.00000390       0.00000674
I        3.37349719      19.60337581      13.54897247       0.00001798       0.00000641      -0.00000269
I        9.77963334      19.64833890      13.72295010      -0.00001263      -0.00000225       0.00000038
I        9.86431906      19.64836595       7.04056097       0.00001512      -0.00000570       0.00000321
I        3.45900289      19.50591278       7.33603469       0.00000389      -0.00000048       0.00000279