96
Lattice="15.87470826324914 -0.12907572777074175 0.09285439714189395 0.052260624888905795 15.109327699574576 0.11589684004711062 0.018438977491513416 -0.04332116837764653 8.615758924405752" Properties=species:S:1:pos:R:3:forces:R:3 energy=-457.6316863469287 stress="0.002243811708215947 0.0001187478100849943 1.0478285593623087e-05 0.0001187478100849943 0.0014408406490096118 8.374773705197167e-05 1.0478285593623087e-05 8.374773705197167e-05 0.0021700125105895162" free_energy=-457.6316863469287 pbc="T T T"
H        1.87137281       1.66138628       6.14644983       0.00001055       0.00002507      -0.00001900
H        3.82243867       2.91986603       6.41810608      -0.00002343       0.00000803      -0.00000328
H        3.29486427       4.14681868       5.27587189       0.00000214      -0.00000251       0.00001224
H        1.13735118       3.78868966       4.17607424      -0.00000945      -0.00001528      -0.00000541
H        0.21846138       2.37602773       4.62192824      -0.00001323      -0.00001575      -0.00000045
H        6.94937447       4.38018708       0.18653552       0.00000145       0.00000272      -0.00001839
H        4.82753500       3.96391876       0.95402397       0.00001449       0.00002315       0.00001525
H        4.78168848       5.34993316       2.01143247       0.00000313      -0.00001872      -0.00001710
H        6.90946273       6.78670434       1.98471693      -0.00001077       0.00000173       0.00000259
H        8.17005603       6.21359031       0.91467125       0.00002302       0.00001691      -0.00000580
C        2.00556582       2.58891064       5.58044774      -0.00000528      -0.00001581       0.00001849
C        6.51553702       5.06079531       0.92258213      -0.00003270      -0.00001649       0.00002336
N        3.10990199       3.27287577       5.77462004      -0.00001435       0.00001218      -0.00001522
N        1.05457525       2.94763062       4.74897837       0.00003541       0.00001648       0.00001388
N        5.29634361       4.78730182       1.32964974       0.00000289       0.00000376       0.00000016
N        7.24505446       6.07424365       1.32583568      -0.00000829      -0.00000037       0.00001484
Pb       3.74648854       0.26097186       1.24028504       0.00000313      -0.00001043      -0.00000921
Pb      -0.22276238       0.38285652       1.12708074      -0.00000170       0.00000045       0.00000504
I        5.80856095       1.51533069       3.52818222      -0.00000171       0.00001010       0.00001444
I        2.63487859       6.28137375       3.53263755      -0.00000830      -0.00000103      -0.00001949
I        5.72237571       1.65238634       7.74530492      -0.00000057      -0.00000800      -0.00001233
I        2.44047727       6.63551432       7.90654901       0.00000642       0.00001280      -0.00000231
I        6.49775527       5.25941606       5.63766698      -0.00000877       0.00001189      -0.00000271
I        1.84499129       2.88118997       1.08667180       0.00000272       0.00000264       0.00000322
H        3.00549845      11.33506722       2.46323219      -0.00001352      -0.00001147      -0.00002142
H        4.16691230       9.44332677       1.79691735      -0.00002532      -0.00001048      -0.00000495
H        2.90896146       8.89869307       0.70816432      -0.00001158      -0.00001773      -0.00002580
H        0.83921792      10.41959248       0.60880543       0.00001085       0.00001260       0.00000720
H        0.92483673      11.82826848       1.63654488      -0.00001234       0.00003369       0.00000815
H        5.33890836      11.93237338       6.77215505       0.00000876      -0.00000957       0.00001330
H        7.44360062      11.49203128       5.97592472       0.00001559      -0.00001854       0.00000499
H        7.50119456      12.89141675       4.93474063       0.00001591       0.00002562      -0.00002780
H        5.39076118      14.35810953       5.00068453      -0.00000769      -0.00000257       0.00000072
H       12.06074167      13.75082146       6.07977974       0.00003065      -0.00000580      -0.00001241
C        2.55901238      10.65930865       1.73075258      -0.00003432       0.00001961      -0.00001580
C        5.77361939      12.61341879       6.03713088       0.00000867       0.00004709      -0.00002571
N        3.25243771       9.60425788       1.37049984       0.00004411       0.00002074       0.00002946
N        1.36471707      10.97830549       1.28595750       0.00003533      -0.00005226      -0.00001546
N        6.98179308      12.32351386       5.60935491      -0.00006809      -0.00000426       0.00002552
N        5.05474630      13.64326696       5.65675089       0.00002043      -0.00002444       0.00000717
Pb       4.53900819       7.83119162       5.66114743       0.00000299      -0.00000481       0.00000262
Pb       0.55935143       7.84707312       5.58443544      -0.00000086      -0.00000683      -0.00000192
I        6.61055856       9.21964213       7.77112370       0.00000345      -0.00000327       0.00001353
I        1.92465019      14.13995669       7.68165610      -0.00000403      -0.00000750       0.00000519
I        6.42939243       9.03359131       3.35848192       0.00000309      -0.00000465       0.00000465
I        1.65892358      14.09039444       3.48891515      -0.00001142       0.00000203      -0.00000190
I        5.81664327      12.83615970       1.36942597       0.00000302      -0.00000670       0.00001149
I        2.55094092      10.38453349       5.57791035       0.00000228       0.00000793       0.00000551
H        9.29988207       3.71222233       4.48508928       0.00000108      -0.00000832      -0.00000596
H       11.38864859       4.12682370       5.33708659       0.00000425       0.00002669      -0.00001224
H       11.41721627       2.70497165       6.34829213       0.00000561       0.00000715      -0.00000830
H        9.30389359       1.25306689       6.21045899       0.00000254      -0.00001381       0.00002132
H        8.07259968       1.84753166       5.11827399       0.00002045      -0.00001059       0.00001901
H       14.87935003       4.34358164       0.24945868       0.00000626       0.00000720       0.00001211
H       16.07998996       6.18541651       0.98123423       0.00001684      -0.00000507      -0.00000665
H       14.81169661       6.75200235       2.04496046      -0.00000843       0.00002222       0.00003885
H       12.68886250       5.30201092       2.05363580      -0.00000331      -0.00001616       0.00000135
H       12.75556005       3.91232086       0.99777702       0.00001780       0.00002451       0.00000357
C        9.71556435       3.01415154       5.21507133       0.00002007       0.00000653      -0.00001779
C       14.43456364       5.02066846       0.98223650      -0.00004323      -0.00005232      -0.00000311
N       10.91509115       3.28993003       5.67566217      -0.00002687      -0.00003036       0.00000969
N        8.98546908       1.97906051       5.55783379      -0.00002967       0.00002663      -0.00003243
N       15.15565248       6.03848023       1.39167963       0.00001385       0.00000464       0.00000810
N       13.21570699       4.73704124       1.38176064       0.00001005      -0.00000913      -0.00001148
Pb      11.68751218       0.22315081       1.27804477       0.00000410      -0.00000388       0.00001776
Pb       7.73232380       0.29725336       1.26533636       0.00001262       0.00000951       0.00001436
I       13.73332683       1.46020565       3.53109111      -0.00000738       0.00000828       0.00000503
I       10.62414853       6.40774366       3.51734574       0.00000784      -0.00000798      -0.00000635
I       13.58443347       1.64036029       7.74698813       0.00000439       0.00000161      -0.00001280
I       10.39918835       6.58240090       7.92714324      -0.00001627       0.00000720       0.00000018
I       14.33191509       5.25836430       5.70627517       0.00000053       0.00000881       0.00000545
I        9.76116842       2.82192482       1.29520725       0.00000010      -0.00001051      -0.00000649
H       10.89323767      11.27905725       2.47245300      -0.00001523      -0.00000937      -0.00001240
H        8.79480135      11.67214542       1.63436342      -0.00000983       0.00000548       0.00001598
H        8.78633816      10.26825670       0.59963782      -0.00000154      -0.00002073      -0.00002021
H       10.91395571       8.84238393       0.71513506      -0.00000001       0.00001062       0.00001231
H       12.14453240       9.43820796       1.80832483      -0.00002079       0.00000226      -0.00000296
H       13.23433883      11.88982561       6.80293394       0.00000005      -0.00000822       0.00002609
H       15.35677471      11.44128567       6.07346274       0.00000585      -0.00000794       0.00001187
H       15.45589044      12.84714686       5.03759113       0.00001250       0.00000665      -0.00000433
H       13.34801814      14.31876877       5.04003091      -0.00001748      -0.00000865       0.00001199
H        4.13666273      13.78919235       6.08172295       0.00001261      -0.00000472      -0.00001555
C       10.48592418      10.58447424       1.73414074       0.00000192       0.00001596       0.00002370
C       13.69478829      12.57092180       6.08406961      -0.00003420       0.00002438       0.00000437
N        9.27971079      10.84753338       1.28302727       0.00001190       0.00001235       0.00001201
N       11.22983705       9.56588661       1.37208546       0.00003827      -0.00002762      -0.00000849
N       14.91446706      12.27752218       5.69318596       0.00002305       0.00000184      -0.00001329
N       12.99101491      13.60380450       5.68438339      -0.00001241       0.00000382       0.00000173
Pb      12.46738445       7.86450287       5.69932935      -0.00000989       0.00000428      -0.00001017
Pb       8.50610549       7.78413343       5.61875361       0.00001442      -0.00000832      -0.00001259
I       14.60875886       9.19910322       7.83183801      -0.00000894      -0.00000411       0.00000220
I        9.83249160      14.11622676       7.71227114       0.00000516      -0.00000356      -0.00001792
I       14.40831075       9.03098276       3.41623290       0.00000024       0.00000011      -0.00000097
I        9.65036812      13.92634511       3.51919947       0.00000272       0.00000615      -0.00000586
I       13.74893472      12.79701357       1.36687985      -0.00000088      -0.00000603      -0.00000068
I       10.42552465      10.38302823       5.66898714       0.00000653       0.00000058      -0.00000917
