768
Lattice="31.9041647668248 -0.2984105816409888 -0.0448845726052398 -0.15833243158624927 30.616362915541128 0.40574715219564506 -0.2687058913775321 -0.2214231929758207 17.420652531327843" Properties=species:S:1:pos:R:3:forces:R:3 energy=-3659.87185140397 stress="0.00291571102190728 -7.113799583213782e-06 0.0001577918532720291 -7.113799583213782e-06 0.0012696461746511303 -0.00024093319870149225 0.0001577918532720291 -0.00024093319870149225 0.001294090179500315" free_energy=-3659.87185140397 pbc="T T T"
H       32.54238369       2.94288518       3.81571152       0.00000111      -0.00000527      -0.00000392
H       30.40470835       3.26507692       3.07915688      -0.00000992      -0.00000032       0.00000244
H       30.37064544       1.83050268       2.07769926      -0.00001490      -0.00000434      -0.00000945
H       32.55181876       0.46392506       2.11823914      -0.00000868      -0.00001209      -0.00001057
H       33.80871823       1.12145786       3.13926516      -0.00000474      -0.00000939      -0.00000566
H        4.38836207       5.97376255       7.63618067       0.00000652       0.00001116      -0.00000430
H        2.25653917       4.98189727      17.11997552      -0.00001458       0.00000354       0.00003447
H        2.30193120       5.00004404      15.38183955      -0.00002254       0.00001058      -0.00002630
H        4.51411837       4.22414877      14.35063694       0.00000447      -0.00000620       0.00001085
H        5.73104909       3.72099270      15.50191279      -0.00004113       0.00001431      -0.00000936
C       32.11662800       2.21712755       3.11915634      -0.00000322       0.00000747       0.00000754
C        4.01305335       4.35953180      16.34773213       0.00005041      -0.00001942       0.00005166
N       30.88181555       2.43617516       2.72715838       0.00001480      -0.00000426       0.00001050
N       32.87164354       1.21208603       2.74503620       0.00001488       0.00002146       0.00002165
N        2.78395564       4.81917567      16.26432653       0.00001902      -0.00001182      -0.00002027
N        4.80044341       4.10054632      15.32925616       0.00001133      -0.00000234      -0.00002050
Pb       2.00124033      30.16776896      16.35747878       0.00000575       0.00001038       0.00000031
Pb      29.95231040      29.74792908      16.20768246       0.00000287       0.00000734       0.00000682
I        4.53167888       1.16490006       0.62295491      -0.00000336       0.00000158       0.00000670
I       -0.36771726       6.08275029       0.63222815       0.00000055       0.00000421       0.00000069
I        4.06455149       0.92442373       4.85870315       0.00000244       0.00000449      -0.00000054
I       31.15524051       5.44356808       4.97031247       0.00000645      -0.00000441      -0.00000731
I        3.59911794       4.67728361       2.80557067       0.00000428      -0.00000346      -0.00000015
I        0.07784499       1.99046819      15.79998539       0.00000074       0.00000916       0.00000750
H       -0.14390934      10.61107547      15.13925364       0.00000287      -0.00001882       0.00001287
H       -0.39201632      11.44082240      17.30258953       0.00000447       0.00001044      -0.00000600
H       -0.38501066       9.86533412      18.03791782      -0.00000789      -0.00000236       0.00000547
H       -0.33654439       8.10532548       7.58529152      -0.00000780       0.00001881      -0.00002186
H       -0.50453839       8.69917651       5.94298659      -0.00000115      -0.00000865      -0.00000799
H        3.50131485      11.36411891       2.10096264       0.00000225       0.00003172       0.00003409
H        3.75799250      13.62430932       1.62794560       0.00000257       0.00001810      -0.00001571
H        3.88461468      14.08787519       3.31228179       0.00000319       0.00003081       0.00001850
H        3.71184346      12.17770411       4.98006782      -0.00000015       0.00000317       0.00002271
H       29.56555784      11.32874201       3.41376213      -0.00000430      -0.00000259       0.00000919
C       -0.19290335       9.91237320      15.98142917      -0.00000055       0.00000161      -0.00001117
C        3.61963474      12.08049005       2.92146724      -0.00000482      -0.00000576      -0.00002726
N       -0.34190244      10.42578954      17.18097533       0.00000503      -0.00001336      -0.00000054
N       -0.36767137       8.89823085       6.93339673       0.00000061       0.00000835       0.00005188
N        3.76214197      13.34827534       2.60962803      -0.00000069      -0.00005321      -0.00002384
N        3.60819222      11.59891320       4.14174739      -0.00000498      -0.00002548      -0.00001549
Pb       1.57375160       7.09510017       3.05622624       0.00000326       0.00000232       0.00000095
Pb      29.46683989       7.00223204       2.78045984       0.00000557      -0.00000918       0.00000407
I        3.44752715       8.24082308       5.42612082      -0.00000761      -0.00000421       0.00000311
I        0.23856121      13.50571910       5.26193147       0.00000081      -0.00001078      -0.00000838
I        3.40577662       8.67473600       0.98935598      -0.00000133       0.00000504       0.00000390
I       31.57459641      13.74236909       0.97939518      -0.00000479       0.00000443       0.00000131
I        3.36065812      12.25455994      16.36751116       0.00000028       0.00000351       0.00000685
I       -0.38490926       9.79412809       3.28172129      -0.00000067       0.00001558      -0.00000819
H        7.93328319       2.20615950       1.24489021      -0.00000676      -0.00000237       0.00000135
H        8.36745372       0.20477231       2.34189283      -0.00000387       0.00000679      -0.00000480
H        8.24967547       0.93323461       3.93388483      -0.00000452      -0.00000091       0.00000784
H        7.75003428       3.40611026       3.98137389       0.00000306      -0.00000634      -0.00000570
H        7.56773149       4.16890701       2.41557753      -0.00000750       0.00000198      -0.00000653
H       11.94976833       3.69796776       8.10513245       0.00000119       0.00000129       0.00000147
H       12.06349697       2.81792831      14.56432180       0.00000354       0.00000981       0.00000200
H       11.92745425       4.44410152      13.96931176       0.00000470       0.00000364      -0.00000599
H       11.38066932       6.21184268      15.70087354      -0.00000789       0.00000112      -0.00000740
H       11.11965261       5.61122614      17.33026034      -0.00001085      -0.00000703      -0.00000973
C        7.95108750       2.18592326       2.33975044       0.00000077       0.00000026      -0.00000667
C       11.59276032       4.18588264      15.98890385       0.00000847       0.00000181       0.00000647
N        8.22098481       1.03936798       2.91855091       0.00000395      -0.00000408      -0.00000676
N        7.71658968       3.31637310       2.96473504       0.00000455      -0.00000605       0.00000785
N       11.90748433       3.80866190      14.77075961      -0.00001694       0.00000540       0.00000101
N       11.32767513       5.41873650      16.35076448       0.00000634      -0.00001630       0.00000505
Pb      10.01974612      30.03077176      16.18711792      -0.00000672      -0.00000116      -0.00000104
Pb       6.02682632      30.09604249      16.32208594       0.00001363       0.00000882      -0.00000623
I       12.53480433       1.01732368       0.46114408      -0.00000278       0.00000043       0.00000406
I        7.48705322       6.22121841       0.72076754      -0.00000055       0.00000638       0.00000785
I       12.00106079       0.50666300       4.62228466      -0.00000918      -0.00000099      -0.00000015
I        7.63736526       6.15140404       5.23430361      -0.00000345       0.00000521       0.00000175
I       11.40849116       4.76515277       2.54399997       0.00001070      -0.00000475      -0.00000273
I        8.17143131       2.06940668      15.98547015       0.00000472      -0.00000551      -0.00000025
H        6.73513802      10.06557208      14.78426922      -0.00000863      -0.00000552       0.00000205
H        8.80582263       9.10010852      14.79266957       0.00000296      -0.00000109      -0.00000958
H        8.91771651       8.99804335      16.53328293      -0.00000117      -0.00000093      -0.00000832
H        6.44558899       9.18375584       8.33842604      -0.00000066       0.00001171      -0.00000134
H        6.07672703      10.73465287       7.64328796      -0.00001105       0.00000525       0.00001907
H       12.21797024      11.96173126       1.66163733       0.00000077       0.00000281      -0.00001289
H       10.09120857      12.87121380       1.88078335       0.00001142      -0.00000036       0.00000247
H       10.18145494      12.97687137       3.60902655       0.00000455       0.00000614       0.00000047
H       12.35432962      12.16641286       4.65520296      -0.00000289       0.00000205      -0.00000744
H        3.50032242      10.59065298       4.30014802       0.00000434      -0.00000708       0.00000870
C        7.18258258       9.80402852      15.74597074       0.00001055      -0.00000465       0.00000599
C       11.84677032      12.21258893       2.65841998      -0.00001104       0.00000660       0.00000570
N        8.37561250       9.25209786      15.70346836      -0.00001575       0.00001235       0.00001653
N        6.75043716       9.97490948       7.76941877      -0.00000439       0.00000691      -0.00000257
N       10.63921224      12.72445905       2.72897650      -0.00000120      -0.00000294       0.00001255
N       12.63402699      11.98781106       3.68477520       0.00000514      -0.00000167       0.00000693
Pb       9.48659552       7.47830157       2.92519030      -0.00000649       0.00000511       0.00000181
Pb       5.50610619       7.34187723       3.05919780       0.00000390      -0.00000479       0.00000219
I       11.70876544       8.47213954       5.14336163       0.00000338      -0.00000300      -0.00000856
I        7.97785192      13.47412459       5.18400667      -0.00000254       0.00000559      -0.00001245
I       11.43099662       8.85130486       0.76649971       0.00000978       0.00000047       0.00000259
I        7.63258682      13.74551581       0.83436453       0.00000752       0.00000449       0.00000644
I       11.32623744      12.07337680      16.09508633      -0.00000504       0.00000374       0.00000174
I        7.45107928       9.94085387       3.03424190       0.00001016       0.00001412      -0.00000007
H       31.59761089       2.06458651      12.76112369       0.00000655      -0.00000822      -0.00000731
H       30.19132758       2.61855896      10.97175883      -0.00001309      -0.00000522       0.00000156
H       31.34036149       2.08248068       9.76733165       0.00000066      -0.00000860       0.00000183
H       33.54753591       1.22494689      10.65047339      -0.00001249       0.00000501      -0.00000074
H       33.71825416       1.19079186      12.37529648       0.00001190      -0.00000179       0.00000118
H        4.40039196       4.18303465      17.35396653      -0.00001250      -0.00000061      -0.00002065
H        2.23309600       5.29679353       8.20495179       0.00000689       0.00000013      -0.00001307
H        2.38284055       3.75796541       7.42048067      -0.00001538       0.00001539       0.00001003
H        4.59856056       3.31191175       6.27198722      -0.00000106       0.00000268       0.00000099
H        5.76730897       4.61509452       6.34968284      -0.00000191       0.00000104       0.00000164
C       31.92553370       1.89659345      11.73103504       0.00001563      -0.00000525       0.00000901
C        4.03667083       4.98805077       7.32165671       0.00000902      -0.00000505       0.00000053
N       31.09602035       2.19644453      10.75766879      -0.00000519      -0.00000082      -0.00000231
N       33.13161874       1.40147490      11.56591144      -0.00000709       0.00000258       0.00001526
N        2.81757251       4.64869105       7.67275163      -0.00000629      -0.00001065      -0.00000220
N        4.86162087       4.23247534       6.63391948       0.00000531       0.00000120       0.00000251
Pb       1.91583222      30.32614120       7.58569362      -0.00000158      -0.00001124      -0.00000692
Pb      29.85118216      29.87201952       7.42520639       0.00001133      -0.00000370      -0.00000238
I        4.17335874       1.15324327       9.21260659       0.00000104       0.00000565       0.00000553
I       -0.06571880       6.12323296       9.33577615       0.00000434       0.00000202      -0.00000432
I        4.15172936       0.63936272      13.63013237      -0.00000821       0.00000051       0.00000582
I       31.84832761       5.19781390      13.70853437      -0.00000517      -0.00000746       0.00000222
I        4.06142646       4.47420400      11.68309634      -0.00000623      -0.00000707      -0.00000144
I        0.06240191       2.23465473       7.14963306      -0.00001088      -0.00000610       0.00000520
H       -0.21136431      10.91835168       6.54461517      -0.00000238       0.00003309      -0.00002982
H        0.11738470      11.52947358       8.76363771       0.00000333      -0.00001094      -0.00000674
H        0.04766974       9.88946522       9.35126791       0.00000112       0.00002936      -0.00000345
H       -0.17445438       7.89851561      16.43265883      -0.00000288      -0.00001542       0.00001275
H       -0.00494224       8.33101260      14.74538337       0.00000228       0.00000952      -0.00000695
H        3.93067408      11.18074294      10.81432373       0.00001021      -0.00003973      -0.00004069
H        3.94450854      13.44901338      10.34047556       0.00000527      -0.00000019       0.00000120
H        3.71195654      13.92852487      12.01032744      -0.00000096      -0.00001141      -0.00000894
H        3.54083335      12.00772012      13.67158609       0.00000846      -0.00001373      -0.00002525
H       29.24921755      12.51148179      10.39967583      -0.00000969       0.00000662      -0.00000113
C       -0.18930738      10.14093864       7.31609664      -0.00000654      -0.00006210      -0.00000675
C        3.81009589      11.90399674      11.62771089      -0.00000723       0.00002699       0.00002725
N        0.02523405      10.52928945       8.55213222       0.00000606      -0.00000128       0.00003572
N       -0.10366889       8.63099855      15.71471686       0.00000462       0.00002452      -0.00001983
N        3.82899517      13.17889117      11.31693278      -0.00000251       0.00002155       0.00001360
N        3.65330019      11.42199899      12.83879818      -0.00000961      -0.00001933       0.00003637
Pb       1.98386215       6.96555182      11.76877232      -0.00000791       0.00000301      -0.00000647
Pb      29.88406523       6.86361911      11.67347683      -0.00000564       0.00000598       0.00000309
I        3.92510196       8.05025494      14.13325751      -0.00000576      -0.00000797      -0.00000562
I       -0.54387117      13.27005047      13.97447623      -0.00000451      -0.00000183      -0.00000057
I        3.96263902       8.43173328       9.64928506       0.00000302      -0.00000678       0.00001385
I       31.97932420      13.65080100       9.67370427      -0.00000193      -0.00000692      -0.00000202
I        4.01087201      12.41763507       7.67660055      -0.00000271       0.00000733      -0.00000129
I        0.07990368       9.59171100      12.07785771       0.00000192      -0.00000693       0.00000232
H        8.16754606       0.74635564      10.77535282      -0.00000437       0.00000051       0.00000614
H        8.17133174       1.22089915      13.03360538      -0.00000303       0.00000935       0.00000212
H        8.19962200       2.96179982      12.79668245       0.00000049       0.00001461      -0.00000258
H        8.18435929       3.72020649      10.36255057       0.00000753      -0.00000768       0.00000050
H        8.18471117       2.44337455       9.17950785       0.00000680       0.00000222      -0.00000778
H       11.56097736       3.41008203      16.76083276      -0.00000273      -0.00000572       0.00001214
H       11.80033135       2.81482805       5.94980400       0.00000312      -0.00000603       0.00000072
H       11.72075442       4.37682988       5.19071185      -0.00000051       0.00000620       0.00000335
H       11.85186202       6.37998822       6.74973665       0.00000229       0.00000053       0.00000319
H       11.98364579       6.00260567       8.44886652       0.00000099       0.00001191      -0.00001211
C        8.18236891       1.79190154      11.10122770       0.00000351      -0.00000118       0.00000498
C       11.88328188       4.37678341       7.24834662       0.00000020       0.00004475       0.00003481
N        8.18939580       2.01783167      12.39368629      -0.00000090      -0.00001329      -0.00000673
N        8.19234333       2.71521230      10.16785726      -0.00000536       0.00000800       0.00001214
N       11.79006277       3.83338525       6.05760311      -0.00000352      -0.00002770      -0.00001974
N       11.89737206       5.66753601       7.48979421      -0.00000073      -0.00001077      -0.00001777
Pb       9.92297746      29.97421184       7.30290465       0.00000046      -0.00000207       0.00000641
Pb       5.90100751      30.20859580       7.45944433       0.00000436       0.00000025      -0.00001466
I       11.92336888       0.88942596       9.04274962       0.00000733      -0.00000077       0.00000208
I        7.86155497       6.19109844       9.28827873      -0.00001065      -0.00000493      -0.00000164
I       12.21985544       0.47193156      13.37403529       0.00000375       0.00000005      -0.00000502
I        8.15696316       5.54731813      13.65942490      -0.00000418      -0.00000358      -0.00000365
I       11.93593558       4.58083535      11.20466183      -0.00000019       0.00000917      -0.00000126
I        8.15301756       2.06784824       6.59449105      -0.00001019       0.00000275      -0.00000371
H        8.17055810      10.94417354       6.63603569      -0.00000101       0.00000114      -0.00000083
H        9.77248987       9.24290193       6.87056902      -0.00000055      -0.00001137       0.00000618
H        8.72350859       8.27885923       7.88965121       0.00000803      -0.00000729      -0.00000920
H        6.83582924       9.87357010      17.78292733       0.00002103      -0.00000637       0.00002229
H        5.59132440      10.53089482      16.74834700       0.00002228      -0.00001823       0.00000068
H       11.10536313      11.89836849      10.35785695      -0.00000231       0.00000390      -0.00000026
H        9.98221021      11.37872663      12.32078054       0.00000657      -0.00000258       0.00000725
H       11.26431604      11.96103012      13.35650653      -0.00000693       0.00000416       0.00000720
H       13.34732061      12.79859307      12.12952417       0.00000355      -0.00000588      -0.00000913
H        3.67030299      10.40890152      12.99833743       0.00000200       0.00004864      -0.00000241
C        7.94807045      10.05538340       7.23430058       0.00000029      -0.00001050       0.00000334
C       11.58316170      12.09332893      11.32066010       0.00001257       0.00000505      -0.00000358
N        8.88723547       9.14949624       7.37149761       0.00001351       0.00000800      -0.00001962
N        6.49521140      10.06382993      16.83257052      -0.00005104       0.00002574      -0.00002650
N       10.90527539      11.81123913      12.40818345      -0.00001173      -0.00000676       0.00000519
N       12.79525236      12.60029759      11.28881673       0.00000070      -0.00000272      -0.00000081
Pb       9.96366789       7.21436932      11.58185040       0.00000512       0.00000797       0.00000178
Pb       5.94221652       7.03885170      11.80474860       0.00001743       0.00001279       0.00000274
I       11.90965910       8.17184075      13.96807073      -0.00000164      -0.00000787      -0.00000393
I        7.21766555      13.27205911      13.84296584       0.00000545       0.00000195       0.00000933
I       12.08612141       8.68675175       9.57261995       0.00000266      -0.00001580       0.00000855
I        8.04262627      13.58296508       9.57304832      -0.00000157       0.00000153      -0.00000484
I       11.99053699      12.24978641       7.37847282      -0.00000543       0.00001352      -0.00000695
I        7.94212850       9.68336522      11.91774952       0.00000615      -0.00000805      -0.00000406
H       31.93516973      18.24820389       3.72487078      -0.00000438      -0.00001223      -0.00000972
H       30.04312441      17.96522265       2.38195502      -0.00000806       0.00000356       0.00000142
H       30.58836130      16.41044216       1.78441650       0.00000052      -0.00000843       0.00000665
H       32.73473477      15.57527639       2.64297921       0.00000784       0.00000733       0.00000681
H       33.59978346      16.58582613       3.77840134      -0.00001978       0.00000034      -0.00000414
H        4.58122196      19.59954677       8.63202286       0.00000726      -0.00000373       0.00000570
H        1.64780977      20.21542717      16.61663049      -0.00001442       0.00000592      -0.00000232
H        2.00935447      20.27494752      14.91656262      -0.00000017      -0.00000874       0.00001387
H        4.29154353      19.51517426      14.23223154       0.00000480      -0.00000035       0.00000157
H        5.34429690      18.94994844      15.51281709      -0.00000607       0.00000099       0.00000363
C       31.83037457      17.34372685       3.11629498       0.00001316       0.00000889       0.00002237
C        3.51691665      19.57911057      16.12847346       0.00000355       0.00000346      -0.00004970
N       30.75353846      17.22939692       2.37148730      -0.00000861      -0.00000405      -0.00001634
N       32.78868666      16.44803822       3.17533452       0.00002651      -0.00002699       0.00001304
N        2.31718194      20.04358705      15.86045890       0.00000827       0.00000760      -0.00000847
N        4.45112323      19.36147877      15.23256945      -0.00000635       0.00000149       0.00001765
Pb       1.36219678      14.94377361      16.02461111      -0.00000793      -0.00000489       0.00000217
Pb      29.28118292      14.36796802      15.95479367      -0.00000522      -0.00000169      -0.00000775
I        3.67681623      16.49953081       0.67961763       0.00000898       0.00000985       0.00000318
I        0.03425356      21.28966788       0.80941657      -0.00001019      -0.00000174      -0.00000559
I        4.09130927      16.09123818       5.04792921      -0.00000199       0.00000194       0.00000614
I       32.10441570      20.71849160       5.11261826       0.00000445      -0.00000281       0.00000318
I        4.17050287      19.88806980       2.85397948       0.00000161       0.00000628      -0.00000240
I       -0.75779551      17.31181222      15.79984815       0.00000576       0.00000262       0.00000269
H       -0.30079696      25.74137522      15.12167102       0.00001115       0.00000429       0.00000467
H        0.07200369      26.67190007      17.22808312       0.00000713      -0.00001796       0.00000422
H       -0.02417153      25.14382492      18.04927979      -0.00000767      -0.00001793       0.00001208
H        0.07729831      23.42894068       7.63352856      -0.00000170      -0.00001099       0.00000907
H        0.30983982      23.99114872       5.98913879      -0.00000034       0.00000886       0.00001479
H        4.25323103      26.70454710       2.21935217       0.00000872      -0.00000037      -0.00000096
H        4.29789590      29.01344122       1.94722012      -0.00000167      -0.00000490      -0.00001854
H        4.18425888      29.34202877       3.65421344       0.00000119      -0.00001381      -0.00000002
H        4.06073896      27.28893269       5.15823607      -0.00000099       0.00000125      -0.00000058
H       29.89190838      26.40606760       3.62255953       0.00000007      -0.00000151      -0.00001362
C       -0.27943915      25.09108538      16.00220373      -0.00000017       0.00001789       0.00001176
C        4.20215118      27.35330345       3.10040080      -0.00000229      -0.00000507      -0.00000253
N       -0.04267984      25.65743503      17.16282916      -0.00000019       0.00000317      -0.00002057
N        0.21633102      24.20948581       6.98064116       0.00000553       0.00001622      -0.00002768
N        4.23363213      28.65110103       2.89869623      -0.00000950       0.00001122      -0.00000214
N        4.11075824      26.77250150       4.27325268       0.00000540       0.00000445       0.00000541
Pb       2.17955933      22.39290257       3.04068707      -0.00000343       0.00000811      -0.00001341
Pb      30.01612189      22.28438991       3.08272103      -0.00000093       0.00000412      -0.00000070
I        4.17072515      23.35776261       5.38127536      -0.00000639      -0.00000204       0.00000449
I        0.08692465      28.86754483       5.43251120       0.00000223       0.00000013       0.00000689
I        4.08597612      23.98815807       0.95189594       0.00000218       0.00000836       0.00000653
I       32.13415261      28.85970198       1.15626570       0.00000018      -0.00000141       0.00000289
I        3.99509739      27.58392756      16.57697621       0.00000036       0.00000321      -0.00000207
I        0.23107575      25.07395051       3.34432284      -0.00000100      -0.00000453      -0.00000587
H        8.03404469      16.43024190       1.76943613      -0.00000663      -0.00001496      -0.00000790
H        8.07300444      15.83856180       4.01861141      -0.00000450      -0.00000171      -0.00000150
H        8.20950015      17.48462586       4.56890380      -0.00000203      -0.00001069      -0.00001268
H        8.27470624      19.24840598       2.77130885       0.00000038       0.00000815       0.00000368
H        8.16519513      18.66196141       1.11967633       0.00000350      -0.00001028      -0.00001188
H       11.58046703      18.87812757       8.10198966       0.00000726      -0.00000661       0.00000456
H       11.38704438      18.02541885      14.63538299       0.00000198      -0.00000840      -0.00000697
H       11.44325693      19.62612627      13.95201574       0.00000495       0.00000177       0.00001468
H       11.73430712      21.53122239      15.61126923      -0.00001104      -0.00000814      -0.00000078
H       11.86643795      21.04757816      17.28778962       0.00000484       0.00000499       0.00000507
C        8.12233509      17.21581561       2.52671518       0.00000602       0.00003204      -0.00000763
C       11.61983271      19.50971774      16.00453554       0.00000306       0.00000507       0.00000690
N        8.13709324      16.83383528       3.78318777       0.00000194       0.00001637       0.00001618
N        8.20133049      18.45942573       2.11864712       0.00000069      -0.00002560       0.00001199
N       11.45925878      19.03717717      14.79010925      -0.00000484      -0.00000043      -0.00000837
N       11.75767474      20.77885690      16.31052693       0.00000201       0.00000250       0.00000146
Pb       9.34669975      14.58780272      15.91761243      -0.00000725      -0.00000717      -0.00000562
Pb       5.36864284      14.79513248      16.02622553      -0.00000797      -0.00001633       0.00000093
I       11.57192975      16.28719563       0.60971453      -0.00000047      -0.00000257       0.00000420
I        8.10934897      21.67681963       0.46364461       0.00000107      -0.00000089       0.00000334
I       11.95323532      15.80903922       4.88501556      -0.00000968      -0.00000310      -0.00000361
I        8.25768651      20.92434737       4.86041067      -0.00000064       0.00000336       0.00000169
I       12.08592040      20.05261522       2.54736901       0.00000056      -0.00000200       0.00000808
I        7.45975947      17.33444995      15.97638578       0.00000189       0.00000404      -0.00000672
H        7.85428246      25.28869383      17.53195193       0.00000787      -0.00000362       0.00003576
H        9.56312489      26.01807294      16.08201591      -0.00000139       0.00000547      -0.00000142
H        8.65646827      25.54806564      14.66163690       0.00000624       0.00000428       0.00000666
H        7.41200195      24.59195997       9.17181242      -0.00000049      -0.00002070       0.00001256
H        7.47551935      26.34439700       9.03518235       0.00000072      -0.00000165      -0.00000834
H       11.58381550      27.35442074       1.78476332      -0.00000759       0.00000132      -0.00000806
H       10.22897898      26.78017136       3.59842408       0.00000114       0.00000759      -0.00000160
H       11.41557219      27.28596376       4.78402859      -0.00000435      -0.00000193      -0.00000941
H       13.60446486      28.15526275       3.84583175       0.00000340       0.00000028       0.00001023
H        4.10875526      25.74887589       4.34721214      -0.00000790       0.00000552      -0.00000114
C        7.73765235      25.19177834      16.44885972      -0.00004024      -0.00002340      -0.00007063
C       11.94438446      27.50152524       2.80640197       0.00000255       0.00000213      -0.00000756
N        8.72403538      25.59683302      15.68125890       0.00000792       0.00000074       0.00000542
N        7.52468880      25.42432330       8.59056529      -0.00000161       0.00003029       0.00002265
N       11.14209886      27.19245784       3.79835272       0.00000564       0.00000152       0.00001859
N       13.15957228      27.98463133       2.94130100      -0.00000940      -0.00000353      -0.00000402