768
Lattice="31.631825064710778 0.4051309343230549 -0.32349711644786056 0.3104028160231228 30.326107049847437 -0.47717539225349825 -0.3476888027449404 0.24651636057680779 17.459090083420115" Properties=species:S:1:pos:R:3:forces:R:3 energy=-3660.3165735219814 stress="0.0016905018115765322 -2.472315268252725e-05 0.00016354287270392044 -2.472315268252725e-05 0.0012971308231970536 -8.962771211432336e-05 0.00016354287270392044 -8.962771211432336e-05 0.0012666487713355063" free_energy=-3660.3165735219814 pbc="T T T"
H        2.06720514       1.99916830       3.56929008       0.00001300      -0.00000026      -0.00000779
H        3.59691275       3.01621659       5.03766518       0.00007350       0.00003084      -0.00001099
H        2.60453816       2.67554697       6.43788925      -0.00001029       0.00001238       0.00005031
H        0.49121218       1.45326845       6.05566920       0.00001793      -0.00000561      -0.00005490
H        0.09112843       1.07073890       4.40413646       0.00004472       0.00002496       0.00005418
H        5.87889490       6.06035062       8.57288257      -0.00000097      -0.00000423       0.00000148
H        5.24472208       2.67705725       0.33306506       0.00000015       0.00001073      -0.00000593
H        5.45127085       3.86655704      -0.94330313       0.00000322      -0.00000198      -0.00000413
H        5.70027578       6.27410838      -0.15472517      -0.00001243      -0.00001056       0.00001255
H        5.64734231       6.50906422       1.56128326       0.00001136      -0.00000531       0.00000822
C        1.86866089       2.02278526       4.64491664      -0.00005917      -0.00001377       0.00004234
C        5.43840774       4.57081498       0.98948451       0.00000822       0.00003458      -0.00000676
N        2.75320025       2.59640179       5.42714879      -0.00003450      -0.00002817      -0.00006273
N        0.75244143       1.47154414       5.06858190      -0.00005107      -0.00001493      -0.00000550
N        5.36015472       3.65242104       0.05715125       0.00001156      -0.00002411      -0.00000998
N        5.61759389       5.85459048       0.77604016      -0.00000874      -0.00000435      -0.00002623
Pb       3.83893665      29.63667296       0.18925344      -0.00000419       0.00001365       0.00001107
Pb      31.48354374      29.99097758      -0.12408631       0.00000936      -0.00001651      -0.00000065
I        5.36344866       1.03278650       2.69833464      -0.00000320      -0.00000736      -0.00000705
I        1.96322659       5.87060331       2.85810258       0.00000257       0.00000485      -0.00000563
I        5.81604710       0.69592636       6.96492208      -0.00000177       0.00001515       0.00000840
I        2.16121722       5.79063174       7.37959995      -0.00000425       0.00000476       0.00000428
I        5.92194142       4.70954340       4.85845399       0.00000606      -0.00000333       0.00000503
I        1.45032289       1.86367991       0.59157297      -0.00000639       0.00001175      -0.00000249
H        1.80919344      10.63212072      -0.17509100      -0.00000128       0.00000458      -0.00001091
H        2.01960118       8.36372487      -0.57827317      -0.00000460       0.00002704       0.00001788
H        1.97565257       7.92834465       1.11686001       0.00000277      -0.00002925       0.00002360
H        0.39146853       8.86762270      10.48674664       0.00000990       0.00000892      -0.00000404
H       -0.21287590      10.40394492       9.90365130       0.00002985      -0.00000191      -0.00001223
H        5.81934155      13.70616287       5.33963894      -0.00000396       0.00000314       0.00000805
H        3.82113800      12.60233491       5.84868915      -0.00000108      -0.00000115      -0.00000849
H        4.32407059      11.12485457       5.08347678       0.00000021      -0.00000633      -0.00000365
H        6.57132381      11.12551963       4.01790018       0.00000704       0.00001150      -0.00000399
H       29.33386806      11.58993730       6.90946184      -0.00000760       0.00002058      -0.00000295
C        1.82541726       9.93667801       0.67014568      -0.00000119       0.00002656       0.00003791
C        5.68047335      12.66804949       5.02322303       0.00004180       0.00000937      -0.00002456
N        1.95715925       8.65940732       0.39587591      -0.00000032       0.00002489      -0.00007606
N        0.54177869       9.71436433       9.93628272       0.00000147      -0.00001368      -0.00000365
N        4.54138597      12.08970333       5.33319710      -0.00002223       0.00000514       0.00000246
N        6.65884597      12.08325534       4.37259830      -0.00002803      -0.00000961       0.00001764
Pb       3.82997162       7.22166650       5.15446942      -0.00000932       0.00000260      -0.00002153
Pb      31.59390256       7.28408354       4.95676436      -0.00000606      -0.00001681       0.00000697
I        5.82766166       8.66674500       7.25084127       0.00000417       0.00000285       0.00000284
I        1.62657955      13.46525704       7.12838976       0.00000370      -0.00000272       0.00001049
I        5.64335381       8.85082580       2.88071657      -0.00000472      -0.00000034       0.00000450
I        1.57016068      13.79365944       3.01371845       0.00000796      -0.00000400       0.00001543
I        5.47104247      12.31686422       0.59039078      -0.00000405       0.00000529       0.00001291
I        1.74104719       9.64591815       5.39347817      -0.00000325       0.00000716       0.00000378
H        9.63931568       3.67355069       5.66096432       0.00000679      -0.00000090       0.00000024
H        9.70944705       1.70484525       6.88204220      -0.00000425      -0.00000268      -0.00000613
H        9.58415674       0.68879658       5.44886708      -0.00000277       0.00001556      -0.00000764
H        9.40379802       1.88749462       3.27059429      -0.00000343      -0.00001346      -0.00000774
H        9.44505985       3.64634727       3.34727244      -0.00000646       0.00000592      -0.00000265
H       13.74822279       4.69335076       7.95085188      -0.00000154      -0.00001023       0.00000451
H       15.61949985       5.76340060       0.81466800      -0.00000426       0.00000858      -0.00000640
H       14.32369270       6.32742841      -0.21842324      -0.00000097       0.00001042       0.00000248
H       12.18315652       4.89116416      -0.12227995       0.00000910      -0.00000006      -0.00000951
H       12.30112580       3.48589772       0.90969374      -0.00000202       0.00000322       0.00000376
C        9.58331978       2.71355168       5.13574910      -0.00000068       0.00000275       0.00000233
C       13.97596482       4.60172369       0.86785673       0.00000891       0.00001116      -0.00000955
N        9.63660205       1.62255252       5.86360052       0.00000937      -0.00002230      -0.00000205
N        9.46563319       2.74073856       3.82820012      -0.00000741       0.00000737       0.00001277
N       14.67950704       5.62011456       0.43726959      -0.00000445      -0.00001267      -0.00000442
N       12.74206927       4.31442419       0.51300381      -0.00001272       0.00000704       0.00001011
Pb      11.73413292      29.93537756       0.32454576      -0.00001024       0.00000539      -0.00000228
Pb       7.72761334      29.87301224       0.19505197      -0.00001375      -0.00000201      -0.00001549
I       13.30295130       1.31763740       2.75746048       0.00000170      -0.00000676      -0.00000184
I        9.59230094       6.15408260       2.62429938       0.00001031      -0.00000014      -0.00000059
I       13.43356433       1.15837461       7.29037488       0.00000320      -0.00000700       0.00000741
I        9.64225846       6.13659086       7.17719408      -0.00000023       0.00000604      -0.00000079
I       13.62304860       4.71836608       4.94272466      -0.00000033       0.00000481       0.00000634
I        9.49299412       2.14628304       0.16836933      -0.00000356       0.00000430       0.00000996
H        8.79223018       8.74702356      -0.02553015       0.00001502       0.00001746       0.00001176
H       11.07519904       8.61192679      -0.21433333      -0.00001210       0.00002660       0.00000341
H       11.37192393      10.15292600       0.55748748      -0.00001001      -0.00000613      -0.00000427
H       10.24287300      10.05002268       7.60392699      -0.00000212      -0.00000758      -0.00000887
H       11.50840081      10.58505200       8.68973733      -0.00000224       0.00000046       0.00000564
H       14.08811119      13.67957876       5.21738928       0.00001580      -0.00000174      -0.00001906
H       11.88779086      13.20502823       5.78228160      -0.00001644      -0.00000146       0.00000648
H       11.91856701      11.62137958       5.06895027       0.00001059      -0.00000368       0.00002123
H       14.11524873      10.92741334       4.01017998      -0.00000686      -0.00000412      -0.00001230
H        7.50554060      12.60448367       4.13680306       0.00000548      -0.00001035       0.00000211
C        9.40309060       9.55804451       0.37847725       0.00004297      -0.00003710      -0.00003377
C       13.66758435      12.70725721       4.94755649       0.00000671      -0.00001317       0.00000215
N       10.70405705       9.44277371       0.24731310      -0.00000805      -0.00003096      -0.00002027
N       10.57149135      10.19747393       8.56479651       0.00000583       0.00001029       0.00003814
N       12.41887068      12.48668988       5.28917866      -0.00001192      -0.00001503      -0.00000273
N       14.43884423      11.85090312       4.32036418       0.00001443       0.00002371      -0.00000649
Pb      11.68500188       7.27056613       4.86147300      -0.00002003      -0.00000627      -0.00000342
Pb       7.76393387       7.40875849       4.89994216      -0.00000534       0.00000295      -0.00000361
I       13.70445216       8.59108520       7.00301513      -0.00000081       0.00000570      -0.00000287
I        9.44567406      13.76614500       7.03749276       0.00000402       0.00000438       0.00000333
I       13.59992265       8.59736790       2.67504768      -0.00000500      -0.00000344       0.00000562
I        9.59301033      13.70262648       2.76614297       0.00000851       0.00000107      -0.00000330
I       13.40848468      12.13310992       0.48968349       0.00000376       0.00000766       0.00000815
I        9.75724487       9.94367679       4.93664036       0.00000084       0.00000756      -0.00000924
H        1.23198890       3.45264430      14.49623136      -0.00000744       0.00002247       0.00000565
H        1.55639000       3.73507684      12.21312988       0.00001051      -0.00003423       0.00001579
H        1.60388324       2.01569315      11.89406132      -0.00000810       0.00000853      -0.00000663
H        1.30382879       0.51954173      13.89641117      -0.00001288      -0.00002164       0.00000621
H        1.09120251       1.34714961      15.43699471      -0.00000645       0.00000590       0.00001376
H        5.35754720       4.24167449       2.03001756       0.00000380       0.00000520       0.00001750
H        5.63358702       6.07703563      10.87767883       0.00000205      -0.00000895       0.00000298
H        5.66422195       4.32304770      11.00104583       0.00000153       0.00000426       0.00001078
H        5.94445811       3.07857584       8.85199838      -0.00000126      -0.00000691      -0.00001338
H        6.05667748       4.05840141       7.40063591      -0.00000757       0.00000674      -0.00001469
C        1.31359566       2.57080809      13.85211243       0.00000210       0.00001667      -0.00001538
C        5.84646852       5.10954042       9.11603252       0.00001192      -0.00000807       0.00000733
N        1.51488220       2.77610069      12.56936217       0.00000816      -0.00000082       0.00000706
N        1.21610634       1.39394999      14.42316717       0.00001866       0.00000866      -0.00003100
N        5.68924157       5.16282903      10.41808162      -0.00000629      -0.00001063       0.00000212
N        5.96878597       4.00411132       8.41947990      -0.00000581       0.00001325       0.00000218
Pb       4.02107345      30.15087507       8.78437127       0.00000904      -0.00001023       0.00000981
Pb      31.67649956      30.22225948       8.68062816      -0.00000039       0.00000172      -0.00000424
I        5.63154548       1.43654950      11.33453666       0.00001038       0.00000449       0.00000034
I        1.51540673       6.31663667      11.53979097      -0.00000527      -0.00000199      -0.00000830
I        5.09542211       0.63747076      15.76941590       0.00000376      -0.00000493       0.00000036
I        1.71736565       5.83576519      15.98214010      -0.00000380      -0.00001678       0.00001157
I        5.60963981       4.85527154      14.05242135       0.00000044       0.00000618       0.00000578
I        1.51105959       2.19214539       8.94138628      -0.00000464      -0.00000957       0.00000078
H        1.74360370      10.86198805       8.71239523      -0.00001942      -0.00000204      -0.00000195
H        3.51843481       9.31735539       8.72555110       0.00001284      -0.00000349      -0.00000200
H        2.65559907       8.21689445       9.77272796       0.00000978      -0.00003027       0.00000423
H        1.71725583       9.87861935       2.73217412       0.00000300       0.00001255      -0.00003622
H        1.63497398      11.45685759       2.00544252       0.00000063       0.00002346       0.00001533
H        4.63824553      12.21620780      12.38876700      -0.00001124      -0.00000065      -0.00002484
H        3.42211863      12.44955588      14.35325055       0.00002156      -0.00000443      -0.00001152
H        4.83018232      12.58759477      15.36661758      -0.00001527       0.00002112       0.00000568
H        7.06984206      12.51558342      14.11388980      -0.00000371       0.00000153       0.00000329
H       30.82213483      13.13582940      12.50232894       0.00000195      -0.00000721       0.00000469
C        1.66175331       9.93305492       9.28453596      -0.00002992       0.00003072       0.00002233
C        5.16340067      12.34782719      13.33840198      -0.00008283       0.00000876       0.00002329
N        2.68558226       9.11075734       9.27696743       0.00000389      -0.00000412       0.00000157
N        1.71053792      10.44160414       1.87455737      -0.00000072      -0.00007902       0.00004376
N        4.43749539      12.48246767      14.42316875       0.00005240       0.00000057      -0.00002148
N        6.47624290      12.36084399      13.29442988       0.00005163      -0.00000362       0.00000988
Pb       3.56995081       7.40401085      13.88491453       0.00000128      -0.00000492      -0.00000014
Pb      31.20270237       7.67563859      13.68899865       0.00000441      -0.00001494       0.00000164
I        5.56443775       8.88653038      15.96202671      -0.00000090      -0.00000314       0.00001254
I        1.26575715      13.68535244      16.01316317       0.00000300       0.00000346      -0.00000547
I        5.57957613       8.60915839      11.59749176       0.00001276       0.00000002      -0.00000246
I        1.68469906      13.22516303      11.51242116       0.00000759      -0.00000650      -0.00000053
I        5.65931378      12.19752453       9.43498785       0.00000082       0.00000101      -0.00000186
I        1.49491846       9.85555701      14.18535483       0.00000528       0.00001234       0.00000430
H        9.42146450       2.06701655      12.34738378       0.00000721      -0.00000033      -0.00001112
H        9.31489206       0.18606445      13.69476090      -0.00000150       0.00000448      -0.00000237
H        9.24541706       1.13630054      15.18519160       0.00000447      -0.00001172      -0.00000249
H        9.34584806       3.61227263      14.90697072       0.00001434      -0.00000444      -0.00001496
H        9.43800962       4.20282504      13.25731460      -0.00000299      -0.00000465       0.00001171
H       14.44694914       3.92293993       1.58291874       0.00001742       0.00000842       0.00000159
H       11.76673837       5.64737032       8.74086543      -0.00000518       0.00000733      -0.00000280
H       12.27184286       5.54755537      10.40833981      -0.00001590      -0.00000722       0.00000449
H       14.47902187       4.54667886      10.85317457      -0.00000341       0.00000704       0.00000169
H       15.41359239       4.01482583       9.46685684      -0.00000447      -0.00000214      -0.00000312
C        9.36983381       2.18521687      13.43437020       0.00000793      -0.00002709       0.00000753
C       13.60824291       4.83677650       9.02690465      -0.00001043       0.00000303      -0.00002030
N        9.29239372       1.09676441      14.16366691      -0.00000079       0.00001403       0.00000020
N        9.39077344       3.40946157      13.90682964      -0.00000111       0.00002601       0.00002151
N       12.48021778       5.38143041       9.42386002       0.00002134      -0.00000089      -0.00000603
N       14.57286245       4.46216215       9.83513331       0.00001121       0.00001062      -0.00000886
Pb      11.92504344      30.20355098       9.17991914      -0.00001295       0.00001417      -0.00000804
Pb       7.96179016      30.10496103       8.95213105       0.00000383      -0.00000246      -0.00000566
I       13.70218653       1.20261482      11.69486124       0.00000041       0.00000231       0.00000469
I        9.42185442       6.13850911      11.53720954       0.00000538       0.00000278      -0.00000883
I       13.04050288       0.62573034      15.85627012      -0.00000296       0.00000372      -0.00001483
I        9.73131073       6.37526975      16.06671553       0.00000444      -0.00001336       0.00001454
I       13.53957155       4.96739914      13.39150095      -0.00000526       0.00000165       0.00000439
I        9.63031445       2.37108718       9.42143387       0.00000752       0.00000202      -0.00000511
H       10.25418544      10.17148009      10.60558859      -0.00000112       0.00000260      -0.00000500
H        8.09139156       9.34780691      10.46191813      -0.00001015      -0.00000663       0.00000182
H        8.09128339       9.29735142       8.72710429      -0.00000168      -0.00000109      -0.00001214
H        9.25400441      11.37547427       1.35104316      -0.00000784       0.00001461       0.00000677
H        7.75741804      10.58415585       0.94827044      -0.00005656      -0.00000805       0.00000980
H       12.85106992      12.00355897      12.27023732       0.00000816      -0.00000273       0.00000239
H       11.47247387      11.75571700      14.13222677       0.00001169       0.00000244       0.00000673
H       12.69331353      12.31553653      15.25379241       0.00000755       0.00000058       0.00000741
H       14.93230369      12.91492075      14.22208285       0.00000790      -0.00000468      -0.00001137
H        6.94450145      12.27034328      12.39465265      -0.00001816      -0.00000036       0.00002400
C        9.82626108       9.96891011       9.62059073       0.00001088      -0.00000215      -0.00003726
C       13.22605424      12.25788254      13.26485075       0.00002752       0.00000839      -0.00000502
N        8.59676927       9.50736198       9.59108945       0.00000845       0.00001010       0.00000880
N        8.77700749      10.56097642       0.94988636       0.00003053      -0.00000759       0.00000161
N       12.40867438      12.13616184      14.28448087      -0.00003628      -0.00001175      -0.00002797
N       14.47161937      12.66799890      13.34201161      -0.00000101      -0.00000207       0.00001899
Pb      11.55492840       7.51504368      13.56502309       0.00000239       0.00000655      -0.00000396
Pb       7.56179695       7.44658443      13.87331498      -0.00001842      -0.00000118      -0.00000826
I       13.58641291       8.75104265      15.78702050      -0.00000124       0.00000655       0.00000336
I        9.04176814      13.63860621      15.76014710       0.00000634      -0.00000356      -0.00000975
I       13.35933605       8.82214187      11.31969964       0.00000063      -0.00000378       0.00000696
I        9.64076125      13.43564958      11.48276431       0.00000133      -0.00000816       0.00000353
I       13.54850621      12.33221539       9.25699370       0.00000699       0.00001900       0.00000072
I        9.46505875      10.01736301      13.59740607      -0.00000352      -0.00000802      -0.00000055
H        2.26668963      15.93786930       4.95427811      -0.00000265       0.00004412       0.00001444
H        3.62846076      17.48701715       6.00598554       0.00003190      -0.00000985       0.00000766
H        2.43928707      18.77432441       5.92972672      -0.00000952       0.00000790       0.00001293
H        0.21304115      18.11573153       4.84227659      -0.00000293       0.00004397       0.00000191
H        0.12025348      16.47344183       4.28739728       0.00000577      -0.00001438       0.00000421
H        5.69855654      20.37820026      10.77334794      -0.00000211       0.00001180      -0.00000001
H        5.82607258      18.56386518       2.14225280       0.00000350      -0.00000358      -0.00000713
H        5.94272590      20.31166884       2.29781375      -0.00000675       0.00000564      -0.00000040
H        6.21075326      21.59765496       0.17867087      -0.00000662       0.00002282       0.00000568
H        6.26285692      20.63964539      -1.29917261      -0.00000075      -0.00000886      -0.00000152
C        1.90059928      16.95414208       5.12135144      -0.00007748      -0.00003054      -0.00004494
C        6.05247754      19.56534906       0.39530942       0.00000075       0.00003853       0.00000265
N        2.71306605      17.81390111       5.68812971       0.00000552      -0.00001802       0.00000077
N        0.67383287      17.20985031       4.72555588       0.00004752      -0.00003332       0.00000889
N        5.93226646      19.48400506       1.70038887       0.00000053      -0.00001162      -0.00001195
N        6.19506961      20.68309342      -0.27828712       0.00000071      -0.00003750       0.00001241
Pb       3.58853334      14.97795277       0.74192048       0.00000624      -0.00000279      -0.00000936
Pb      31.23867280      15.28289075       0.34412627       0.00000802       0.00000053       0.00000300
I        5.66778324      16.08945671       2.91104776      -0.00000945       0.00001511       0.00000528
I        2.07784316      20.93475223       2.65521370       0.00000510      -0.00000331       0.00000614
I        5.59114056      16.01257440       7.11150816      -0.00000380       0.00002212      -0.00000625
I        1.95512432      21.11977610       7.07320722      -0.00000330      -0.00000892       0.00000680
I        6.03013131      19.96708499       5.37564660       0.00001229      -0.00000736      -0.00000524
I        1.49851289      17.44127045       0.55084375      -0.00000596      -0.00000102       0.00000071
H        2.36892024      23.43088087       0.32721654      -0.00001174      -0.00000329      -0.00001058
H        3.90180718      24.77045150       1.46872230       0.00000269       0.00000757       0.00001135
H        2.81653843      26.15239915       1.50267746       0.00000503      -0.00000187       0.00000663
H        2.85906179      25.44974910      10.51544729      -0.00000592      -0.00000169      -0.00000004
H        3.71821589      26.03989281       9.10708467      -0.00000324       0.00000580      -0.00001387
H        5.93704398      28.69724421       3.74929288       0.00001497       0.00002078      -0.00000006
H        3.91743438      27.61614669       4.20972726       0.00000949      -0.00000786       0.00000049
H        4.69343205      26.39824463       5.20502591      -0.00001132       0.00000301      -0.00001983
H        7.14280396      26.56007471       5.46063697      -0.00000652       0.00000278      -0.00000683
H       31.13389811      28.22232619       5.37858797      -0.00000765      -0.00000755      -0.00000714
C        2.11121211      24.46263183       0.58136657       0.00002914       0.00000796       0.00000769
C        5.92850722      27.80784421       4.38432243       0.00000154      -0.00002121       0.00002147
N        3.00926839      25.19057556       1.20079308      -0.00000989       0.00000002      -0.00001435
N        2.91905620      25.53747687       9.49510809      -0.00001956      -0.00000709       0.00001279
N        4.77054792      27.23276289       4.61938228      -0.00000828      -0.00000679      -0.00000291
N        7.07665877      27.38799496       4.86621161       0.00001200      -0.00000825      -0.00000524
Pb       3.91199572      22.37940911       4.78924630       0.00000656       0.00002149       0.00000466
Pb      31.62235526      22.59290944       4.38142660       0.00000218       0.00001487      -0.00000568
I        5.83438302      24.28183206       6.74513873      -0.00000149       0.00000215      -0.00000486
I        2.01807318      28.47490508       6.84919657       0.00000379       0.00000344       0.00001043
I        5.95704223      23.31386649       2.41058123      -0.00000907       0.00000522       0.00000888
I        1.85531067      28.44265702       2.52206504      -0.00000520       0.00000461      -0.00001520
I        5.99165660      27.29914375       0.65060833      -0.00000391      -0.00001760       0.00000627
I        1.81012433      24.84018116       4.75923289      -0.00000758      -0.00001435       0.00000443
H        9.48038635      16.04526974       5.09056526       0.00000429      -0.00000023      -0.00001089
H        9.47449084      17.41803625       6.98417698       0.00000305      -0.00001007       0.00000957
H        9.57538580      18.88494532       6.05981207      -0.00000105      -0.00002381       0.00001793
H        9.65392111      18.61968556       3.55131461       0.00000201       0.00001149       0.00000757
H        9.60124375      16.99013477       2.94350351      -0.00000540       0.00000855      -0.00000162
H       14.14892918      18.80217772      10.11997310      -0.00000131      -0.00000057      -0.00000724
H       15.56719446      18.87290112      -0.26008956      -0.00000226       0.00000736       0.00001652
H       14.34435694      19.55200255      -1.31276372      -0.00000110       0.00000335       0.00000399
H       12.22481054      20.34838332      -0.13109366      -0.00000487       0.00001128       0.00000783
H       12.22922310      20.18291556       1.59884496      -0.00000048      -0.00000204      -0.00000505
C        9.53257329      17.13218177       4.97018776      -0.00000320       0.00000819      -0.00002450
C       13.92512226      19.53014969       0.70769199      -0.00001750       0.00000390       0.00000020
N        9.52200732      17.86091372       6.06167374      -0.00001001       0.00002648      -0.00000148
N        9.60104138      17.61329175       3.75091908       0.00000255      -0.00003161      -0.00000325
N       14.66164634      19.33862103      -0.36156615       0.00001248      -0.00000573      -0.00002401
N       12.71932514      20.05069198       0.71512554       0.00002716      -0.00001611      -0.00000359
Pb      11.53788700      14.84462582       0.40524522       0.00000853      -0.00000211       0.00000141
Pb       7.50705473      14.85982255       0.48076349      -0.00000112      -0.00000079       0.00000419
I       13.43237117      16.10466747       2.61985979       0.00000654       0.00000015      -0.00000390
I        9.75703491      21.10726124       2.69845450       0.00000061       0.00000071       0.00000701
I       13.39681820      16.10248667       6.92653507       0.00000507       0.00000342      -0.00001025
I        9.85633676      21.35062696       7.19261181      -0.00000969      -0.00000068      -0.00001052
I       13.59827999      19.71461802       4.78810280       0.00000475       0.00000540       0.00000461
I        9.55248409      17.34413222       0.15999931       0.00001128       0.00000821      -0.00001139
H       10.12098533      23.74778545       1.41381915      -0.00000901       0.00000627       0.00000351
H       10.24224545      23.45422072      -0.88940757       0.00000507      -0.00000249      -0.00000132
H       10.10015893      25.16822097      -1.22095725      -0.00000239      -0.00001337      -0.00000629
H        8.63418076      26.22808435       9.03082544      -0.00000143      -0.00001521       0.00001229
H        8.09566365      24.82419146       9.90939803      -0.00000530      -0.00001186       0.00001294
H       13.90948030      27.69046397       6.29828071      -0.00000116      -0.00000287      -0.00001088
H       13.59037072      29.58201211       4.99871322       0.00001308      -0.00000006       0.00001123
H       13.58516534      28.67115274       3.48843587       0.00000639      -0.00000300       0.00000353
H       13.89198586      26.18520156       3.70721733      -0.00000770       0.00000926      -0.00000158
H        7.93729474      27.87530335       4.61835148      -0.00000150      -0.00000217       0.00000804
C       10.06209894      24.62210320       0.75829052       0.00000167       0.00001385       0.00002126
C       13.84139193      27.58971247       5.20995762       0.00000405      -0.00002300       0.00000865
N       10.15412695      24.41286608      -0.53428931       0.00001416       0.00000203      -0.00001451
N        8.84009977      25.29525323       9.38792125       0.00000985       0.00000326       0.00000761
N       13.65616841      28.68421119       4.50902206      -0.00002255       0.00001580      -0.00000249
N       13.94857861      26.38091012       4.70896248       0.00000020       0.00000281      -0.00000049