768
Lattice="17.3129846459 0.0956884079095 -0.14139655882 0.694664158275 30.6287352067 0.468960193647 -0.45889406856 0.746831231928 31.9839264891" Properties=species:S:1:pos:R:3:Z:I:1:forces:R:3 energy=-99811.6386605 stress="-741.555585 -1731.977263 1116.826275 -1731.977263 2633.145127 868.053286 1116.826275 868.053286 -2994.052317" pbc="T T T"
I       2.35293310       1.04172102       6.88134863       53       0.36936400       0.24466000      -0.08237700 
I       2.07235168       1.39473912      14.83900423       53      -0.13923300      -0.22788600      -0.04921400 
I       2.00038282       1.41047683      22.07629634       53      -0.05430200      -0.19030900       0.10556900 
I       1.86752251       1.76848569      30.73897286       53       0.18452900       0.17798700       0.29346600 
I       2.92305521      15.98238186       6.31901226       53      -0.41492800       0.19249300      -0.16600300 
I       2.68341415      16.80655494      14.71161345       53       0.55247000       0.29088100      -0.39232300 
I       1.80673856      16.95836301      22.24719153       53       0.33339100       0.24081600       0.11720000 
I       1.51615074      17.48450393      30.16208824       53      -0.00034600      -0.06588200       0.20483400 
I      11.39578725       0.95783664       5.44691237       53      -0.42128400      -0.28082700      -0.38916700 
I      10.87374923       2.02813857      13.29286314       53       0.34448900       0.11565700       0.23484400 
I      10.27908141       1.93550096      21.94478276       53       0.02750700       0.17523200      -0.15056800 
I      10.53404015       2.22637942      29.37387272       53      -0.16306400      -0.18151900       0.01117400 
I      11.23424550      16.55451262       5.85326511       53      -0.32302100      -0.57775400       0.08685900 
I      11.07997689      16.71693228      13.90194782       53       0.25011800       0.05238600       0.04941400 
I      10.36008520      16.90724903      22.29448928       53       0.35158000       0.20248500      -0.27268700 
I      10.56374283      16.50839338      30.36279362       53      -0.46068600      -0.04336300      -0.04392600 
I       6.86080729       8.61268034       5.14675312       53       0.10113200      -0.02600600       0.19634300 
I       7.02075546       9.16310916      13.44582783       53       0.27647000      -0.16920800      -0.26246200 
I       6.41502914       9.94224396      21.91133053       53      -0.26379600      -0.51285900      -0.26278300 
I       6.58173086       8.83346322      29.60081293       53      -0.49735600       0.38604200      -0.24798600 
I       7.28623420      24.39157279       6.87397895       53      -0.29332200      -0.12784600      -0.03923400 
I       6.82482485      24.45096920      14.93987550       53       0.76881700       0.39317700       0.07595300 
I       7.13102198      24.21336266      22.71259927       53      -0.05009100       0.18080600       0.08708100 
I       7.32704516      24.41001591      31.15037907       53       0.25470500      -0.09012900      -0.46788400 
I      15.41979267       8.97169154       6.19758173       53      -0.57491600      -0.18747400       0.26621800 
I      15.67750956       8.84011923      14.63761305       53      -0.20844600      -0.12268900      -0.08991700 
I      15.29368093       9.22494222      22.76843327       53       0.42766800      -0.06874900      -0.12609800 
I      15.65414835       8.95104767      30.62802352       53      -0.48859000      -0.09052700      -0.07334800 
I      15.84790309      23.91063040       5.37400886       53      -0.86057300       0.70619300       0.57636800 
I      15.42483718      24.66318398      13.96656392       53      -0.29094800      -0.18848200      -0.08001700 
I      15.77315915      24.81017748      21.90212938       53      -0.03461900       0.21630000      -0.11059200 
I      15.82657541      25.58322164      29.68647403       53      -0.21451800      -0.13691900      -0.17504700 
I       6.75391008      13.37339214       2.46014286       53      -0.56222500      -0.09184700       0.04554400 
I       6.59616863      14.22965279      10.11218062       53       0.03530900      -0.18380300      -0.06448700 
I       6.29856249      15.05659199      17.59425187       53       0.01563100      -0.37395100       0.19441100 
I       6.07811903      14.55568755      26.07580782       53      -0.59473200      -0.25527000       0.10052100 
I       7.33410727      28.96509826       1.46376270       53       0.05021200       0.37938200       0.14677800 
I       7.40865512      29.63744734       9.55408351       53      -0.06100700      -0.02168600       0.59345400 
I       6.65505243      29.94498025      17.39019610       53       0.03957300       0.05322700      -0.05450700 
I       6.41427466      29.49286461      26.02544932       53       0.19514600       0.29944400      -0.16523900 
I      15.14236457      13.62615012       2.54203451       53       0.16734600       0.20325300       0.06577300 
I      15.33510902      14.30780387      10.44024692       53       0.09880500       0.15432300       0.15492100 
I      15.32559930      14.42064540      18.05115919       53      -0.27180700       0.27451500      -0.23403500 
I      14.19181897      14.91804317      25.78559226       53       0.83179200       0.19605600       0.03882600 
I      15.71359054      29.25509882       3.54676976       53       0.51153500       0.35671900      -0.48986400 
I      15.72015099      29.69509389      11.04679640       53       0.06814700      -0.12158900       0.38864300 
I      15.10417541      30.04184020      18.80943911       53       0.36116700      -0.14390400      -0.21147200 
I      15.08252025      30.11368763      26.78481718       53       0.64669000       0.36710700      -0.45005400 
I       1.84338690       5.88953421       1.39280811       53       0.13228500       0.10999200      -0.04328900 
I       2.52980745       6.40981144       9.74105086       53       0.08767200       0.32936500      -0.13027400 
I       2.59459177       6.72943604      17.44137378       53      -0.10323900       0.16674400       0.25922000 
I       1.95284121       7.03812955      25.23057183       53      -0.59463200      -0.24887400       0.87246200 
I       2.76176430      21.57536104       2.84332549       53       0.37358000       0.15248300       0.19719900 
I       2.60796250      21.56436027      11.05576364       53       0.48096500       0.22631700      -0.25964700 
I       2.40921501      21.88982169      18.63918095       53       0.25052900       0.16550100       0.27456000 
I       2.31318022      22.29598233      27.07759380       53       0.50513000       0.09493500      -0.03195200 
I      10.97439057       6.11789879       2.39825803       53      -0.14849200       0.12139200       0.03368000 
I      11.10218447       6.09606148      10.85904769       53       0.22796500       0.03133900      -0.20337500 
I      10.84104552       6.97316109      18.85982249       53      -0.07967900      -0.03073400      -0.14394500 
I      10.81348386       7.51816218      26.45486566       53      -0.46395300       0.13927400      -0.32916100 
I      11.63055899      21.93789682       0.97101926       53      -0.09128300      -0.24454500       0.16982400 
I      11.05937880      22.51279967       9.27759205       53       0.04226400      -0.25459800       0.56367200 
I      10.60805349      22.63635133      18.05519738       53       0.80465000       0.08254400      -0.24201200 
I      11.09894954      22.54338226      25.87520198       53       0.12011600       0.14649400       0.07777300 
I       6.64229384       1.20422429       5.40342289       53      -0.02125300      -0.12258300      -0.30056800 
I       6.38147539       1.54010420      12.92735819       53       0.03937700      -0.09578200      -0.24898800 
I       5.89847757       2.45578515      21.37632987       53       0.60397800      -0.23184900       0.54966100 
I       5.99508868       2.01497487      29.11977598       53       0.28012900      -0.47884700       0.07761600 
I       6.78635399      16.90661399       6.23797264       53       0.37699600      -0.33320400      -0.12808800 
I       6.69827017      17.07868571      13.57281847       53       0.14213300      -0.41635400       0.25591200 
I       5.73917838      16.76908144      21.81353096       53       0.23183200       0.28383500       0.13920100 
I       6.01611875      16.65429994      30.23406905       53      -0.02740900       0.20177700      -0.27621300 
I      15.35984981       1.21819623       6.60464416       53      -0.25483900       0.23623100      -0.33713100 
I      14.79981074       1.78880010      14.61450864       53      -0.15574700       0.09171500      -0.43867200 
I      14.77387253       2.28681300      22.66849266       53      -0.45480200       0.08729800      -0.41274200 
I      14.97372686       1.86409447      30.28623811       53      -0.36586300       0.01134200       0.05410000 
I      15.60979091      16.50857255       6.12497285       53      -0.08408400       0.17409300       0.51190900 
I      15.66209932      17.72873761      14.58021632       53      -0.67197300      -0.09447000      -0.03651100 
I      14.87497273      17.82467486      22.31095859       53      -0.30133200       0.33988300      -0.30539900 
I      14.09803470      16.91549663      29.62167877       53       0.89647600      -0.17983200       0.14620800 
I       2.20126537       8.57614050       5.43560005       53       0.28819100       0.14567200       0.20997000 
I       3.10670999       9.62354804      13.16808619       53      -0.29828700      -0.01821500      -0.08345200 
I       1.90749935      10.75239832      21.34567064       53       0.27825900      -0.46304800       0.00374800 
I       2.39538939       9.82996083      29.63036332       53      -0.23005400      -0.07198900      -0.26603700 
I       2.74021066      24.73907856       6.11035492       53       0.43588800      -0.44000100       0.20195400 
I       2.43056857      23.99362193      14.38665369       53       0.28921400       0.06983400       0.21469000 
I       2.75869160      24.50075636      23.27384969       53       0.08716300      -0.33165100       0.15088200 
I       2.73442759      24.84318278      31.23053978       53       0.13029800       0.18127200      -0.73263000 
I      10.80995131       8.92419869       6.57592988       53       0.00579700      -0.02517000       0.28871600 
I      10.96649832       8.94314945      14.67004502       53       0.06124700       0.02050900      -0.14842000 
I      10.81531036       9.67102296      22.39788977       53       0.06675800       0.32274700       0.14937800 
I      10.56762177       9.57479009      30.68906427       53       0.84490000      -0.12242900      -0.18739600 
I      11.13553915      24.00892268       5.43547165       53       0.32753800       0.01290900       0.03624600 
I      10.76454575      25.00928430      13.52773840       53       0.34506300      -0.26570000      -0.31096500 
I      11.04243670      25.42273299      21.71637837       53      -0.16137200       0.12394100       0.05282400 
I      11.35493847      24.91680495      29.54969895       53      -0.07220500       0.21588400       0.24712200 
I       6.32228502       5.50419064       1.70967556       53      -0.19842100       0.16257200      -0.01470800 
I       6.99324258       6.51567447       9.21878390       53       0.22761000       0.14445800      -0.15098700 
I       6.59577845       7.29730266      18.13457077       53      -0.20356500      -0.02243800      -0.12298100 
I       6.26792018       6.82885408      25.48687729       53       0.27147000      -0.16707100       0.11682200 
I       7.39702030      21.29521161       3.01529269       53       0.04783500      -0.19280700       0.29823700 
I       6.81626172      21.55200381      10.33159189       53       0.28251400       0.06464000       0.06124200 
I       7.05528267      22.75924605      18.82354044       53      -0.52550300      -0.07680800       0.03511200 
I       6.98020031      21.41408506      27.10510967       53      -0.10727300      -0.06480400       0.12758300 
I      15.13370091       6.13436212       3.06317472       53       0.40393600      -0.18107700      -0.32446100 
I      15.40389669       6.17544183      10.71314710       53       0.11896600       0.07563300      -0.03418000 
I      15.20376664       6.84933571      19.00343572       53       0.46936400      -0.39024200      -0.26832100 
I      15.19319586       6.47097860      26.42442342       53      -0.16522900       0.05390100       0.46749700 
I      16.10947005      22.21570515       2.22243678       53      -0.19806500      -0.67534500      -0.70436300 
I      15.47481246      21.42263524       9.99865826       53      -0.33854000       0.24013900       0.23854400 
I      15.17661806      22.13784274      18.18473218       53      -0.07051800       0.03701400      -0.34604000 
I      15.33056319      22.50087520      25.49663684       53       0.43593800      -0.03163600      -0.27039900 
I       2.00309718      14.15515172       1.89242057       53       0.47007400      -0.30907100      -0.12689100 
I       2.39534361      14.57512205      11.23168244       53       0.01246100       0.08858100      -0.52477100 
I       2.08110393      14.43794584      18.71447931       53       0.38352900      -0.28759500       0.51552900 
I       1.79719003      14.40104666      26.23807320       53       0.07882300       0.32465500      -0.09515800 
I       2.71792146      28.77996537       2.92564515       53       0.05037700       0.10098600       0.16851100 
I       2.71165564      28.88309015      11.25959347       53      -0.12100500       0.23023000       0.45557200 
I       1.91287631      29.36903326      19.31424140       53       0.49691200      -0.16911100      -0.17765400 
I       2.38038526      29.38917845      26.94795350       53      -0.05018600       0.01045500       0.05785900 
I      11.05501811      13.63626104       2.10665196       53      -0.38919400       0.01842900       0.27619500 
I      11.18973179      14.14138583      10.00803957       53       0.07613100      -0.05297300       0.12248400 
I      11.02532140      14.63636585      18.29134372       53      -0.39624300       0.17462100      -0.18507500 
I      10.25229117      13.63693689      25.87512534       53      -0.37427000       0.14679300       0.69159700 
I      11.99468238      29.26239385       1.93039573       53      -0.42376600       0.11820400      -0.33788100 
I      11.96069067      29.64091718       9.56122127       53       0.22574500      -0.04663300       0.48637600 
I      11.38895109      29.98825473      18.47832501       53      -0.49632700       0.00413400       0.00440000 
I      11.23435698      29.85938583      25.53570193       53      -0.56137800      -0.05233900       0.07036200 
I      -0.08015673      12.63166016       6.26402632       53       0.16489700      -0.46936700       0.42251500 
I       0.49204768      13.17487259      14.64993865       53      -0.10006800      -0.00078300      -0.30966400 
I      -0.93511346      13.59455625      22.14770481       53       0.11728700       0.33416500       0.06361500 
I      -0.74369086      13.18084478      30.65505066       53       0.02972200       0.11701500      -0.20670800 
I       0.87366660      27.77870195       7.34577892       53      -0.07575900       0.71106900      -0.08421600 
I       0.35955367      28.00874969      15.49757347       53      -0.03409300       0.11934700      -0.10455300 
I      -0.45711336      28.78140367      22.93685199       53       0.12976900      -0.25884600      -0.05054000 
I       0.89737022      28.48124940      30.91484588       53      -0.05178300      -0.65982500       0.57370400 
I       8.28507391      12.70820074       6.66588896       53       0.30356300      -0.16554200      -0.17443300 
I       8.79471168      12.88679209      14.44684738       53       0.13613700       0.12761900      -0.04829700 
I       8.33225818      13.23328060      21.77074719       53       0.10721500       0.24471400      -0.15062400 
I       8.25389410      13.02024564      30.42940443       53      -0.22536000      -0.54955700      -0.33361600 
I       9.35399526      28.24214982       6.37142320       53       0.04651800      -0.21173400      -0.66850800 
I       9.89543892      28.93641284      14.49472443       53      -0.32035700       0.09660300      -0.18743900 
I       8.39483578      29.02129059      21.86988752       53      -0.05622900      -0.18971400      -0.04019300 
I       8.47994545      28.74730546      29.73434810       53       0.38366300      -0.15867700       0.06042600 
I       3.81609062       4.80468802       5.65925854       53       0.41420100       0.31118800      -0.02088100 
I       4.60036150       5.47397833      13.71812781       53      -0.08598500       0.08462900      -0.41172700 
I       3.71397414       6.09008431      21.99022116       53       0.12670400      -0.35258100      -1.13966900 
I       4.35498913       5.36178677      29.40226352       53      -0.25636800       0.16835400       0.17321500 
I       4.86512757      20.53640813       6.83616106       53      -0.06104700       0.19326400      -0.13759600 
I       5.50618834      20.71484819      14.82007637       53      -0.45368300      -0.05180000       0.17029400 
I       4.89038893      20.86714499      22.61077941       53      -0.46414100      -0.25981600       0.48665800 
I       3.53770099      21.11186839      30.96557266       53       0.90385400      -0.64546300      -0.17398300 
I      13.08524396       4.71163533       6.67994252       53      -0.12641200       0.26151900      -0.27487200 
I      12.78973008       5.23745674      15.56878984       53       0.09099100      -0.32928900      -0.48298400 
I      12.43105333       5.74736525      22.67471269       53       0.15516400       0.16009300      -0.09972900 
I      13.25431664       5.47019495      30.75299556       53      -0.00115000       0.14502800       0.05704100 
I      13.12870856      20.05902019       5.79888136       53      -0.02647100       0.30959200      -0.14437500 
I      13.00007158      21.03924657      13.66986954       53       0.38281100       0.20571300       0.34254200 
I      12.67154941      21.48028379      22.05493879       53      -0.06620200      -0.09684600      -0.28006100 
I      13.85301269      20.81194902      29.99275677       53      -0.27730300       0.54185300      -0.51805000 
I       9.20249674       2.48945237       1.38045563       53      -0.05036700      -0.17948200       0.12274600 
I       8.71842990       2.87974191       9.20048611       53       0.00798800       0.44413500       0.36634800 
I       9.40475588       3.28755087      17.54797437       53      -0.54070900       0.30081800      -0.18834600 
I       7.83690888       3.20155234      25.54170298       53      -0.00269800      -0.06905200      -0.05250200 
I       8.43360922      17.35368512       2.09358082       53       0.22529400       0.22509200       0.14054000 
I       9.17747924      17.94637116      10.26249465       53       0.11591600       0.29349600      -0.14605300 
I       8.73240283      18.73891552      17.82906641       53       0.12884500      -0.46382600       0.08822200 
I       8.77148384      17.99969683      26.14771497       53      -0.11919300      -0.34129000       0.24999900 
I      17.30188732       2.46767279       1.87128798       53      -0.13675500      -0.14587200       0.14678300 
I      17.35150825       2.64338256      10.48861966       53       0.23111700       0.39258400       0.48172000 
I      17.36458635       3.15028607      18.26467889       53      -0.35209500       0.18927600       0.03045900 
I      17.34867843       2.85052397      26.40527160       53      -0.02820900       0.47358100       0.07015400 
I      16.97047362      17.89339286       2.08912756       53       0.12402300      -0.14247900       0.03814700 
I      17.76418952      18.26533981       9.69852987       53      -0.32080900      -0.36021400       0.19933100 
I      17.64038106      18.68092456      17.76605683       53       0.10245400      -0.07736700       0.45487300 
I      16.91318340      18.41363226      26.40831941       53       0.22512500       0.45652100      -0.00368900 
I       4.16963526       9.81154758       1.32845976       53       0.12848500      -0.06707700       0.27022000 
I       4.81469940      10.31221413       9.06250465       53       0.05398100       0.07839300       0.11152900 
I       4.17661874      10.94764910      17.24291295       53       0.20274600      -0.33856500       0.21678900 
I       4.29409569      10.99577101      25.78351693       53      -0.16543500      -0.17155400       0.09263600 
I       5.52359827      25.36166736       2.27695889       53      -0.02424700      -0.40830600       0.36944000 
I       5.53190658      25.73695675      10.18777958       53      -0.10401400       0.28261800       0.58680700 
I       4.40477628      25.97754540      18.74359572       53      -0.06104000       0.10897700      -0.15911800 
I       6.05267949      25.54671166      26.98375876       53      -0.11765200       0.52303600      -0.21900500 
I      13.15558540      10.38751447       2.22017730       53       0.03340600      -0.99589900       0.22983100 
I      13.10400758       9.96258524      10.91945041       53       0.43185600       0.46582000      -0.41409100 
I      13.29283627      10.76040105      18.50862590       53       0.00428800       0.16985600       0.11536800 
I      14.09981242      11.01883958      26.64145776       53      -0.36649500      -0.44866900       0.35684800 
I      13.35576821      25.59764448       1.68275691       53       0.01068100       0.40200600       0.31618900 
I      14.35258135      25.43680645       9.41394012       53      -0.15146400       0.25507600       0.11781100 
I      12.84087292      26.35440050      18.17089064       53       0.19246100       0.58567800      -0.94467500 
I      13.04766794      26.28781755      26.08351294       53       0.07756700       0.34455100       0.00713400 
H      -0.30310254       8.29596320       3.02240656        1       1.73413600       1.52268100      -1.62252100 
H       2.01363411      10.34667565      10.09651258        1      -0.42943700      -0.18741900       0.41401600 
H       1.17686868      10.66542831      17.34235488        1       1.23365900       0.64687800      -0.17437700 
H      -0.46296013       9.81728984      25.55684348        1       1.03161100       1.50515200       1.06196500 
H      -0.75081170      26.02592312       1.46345413        1      -0.48000700      -0.25600200      -0.92209000 
H       1.94794899      25.43308379      10.88732302        1      -1.87437200       1.19170100      -0.27319700 
H       1.05101574      26.26678848      17.93999883        1       1.10692000      -0.96215400       0.86112000 
H       1.34425123      25.95968158      25.35107070        1      -1.84209400      -0.90430000       0.89783900 
H       7.63041545      10.26582116       0.84553759        1      -1.81313100       1.67759200      -1.48897200 
H       9.86755079      11.56536657      10.44702933        1       0.88205700      -0.49994600       0.35974300 
H       8.80393473      11.41616834      17.28374182        1       0.20895700       0.84480900       0.22995100 
H       8.42087452      11.53113796      24.93492258        1      -0.43223600      -1.59296700       0.39020200 
H      10.49857231      25.56939005       2.80119269        1      -1.16985700      -0.61667300       0.21733600 
H       9.57169450      27.16239790       9.90141111        1       1.78850200      -1.52691300      -0.49052700 
H       7.77124963      28.03600875      19.20943943        1       2.28822500      -2.89593300      -1.79275300 
H       9.62850893      25.98346085      24.08079698        1      -1.00508200      -0.26426700      -0.60647900 
H       3.72270548       0.73436329       1.75812196        1       0.32891200       1.17485100       0.32264200 
H       3.99029739       2.48881136       8.94042513        1      -0.28712900      -0.12264800       1.63996000 
H       4.68713841       3.39060497      17.35033969        1       0.60455800       1.85879000      -1.95731100 
H       2.79019689       3.42051469      25.47763533        1      -0.82951400      -0.27128200       1.06768600 
H       4.06671354      18.03548617       1.22646970        1       0.23188100      -0.47313500       1.68807000 
H       5.27548764      16.72149006       9.84008569        1      -0.04035700       0.26597900       0.54371900 
H       4.34809822      19.31572549      18.20099445        1      -0.40752900      -0.33826800       0.29101000 
H       3.92919194      16.98668114      27.26159098        1       0.06910200       0.98688800      -1.59044800 
H      14.09144140       3.38429536       2.82364414        1      -1.51777200      -1.44348000       0.04546900 
H      14.83418168       2.86800457       9.86134568        1      -1.74423200       0.50353400      -1.27387100 
H      13.28550540       2.60464197      17.55187620        1       1.96670900       0.04272000      -1.53369500 
H      13.20940578       3.49840498      26.05230128        1       0.46005400      -0.58139600       0.81783300 
H      13.62659207      18.38481545       1.47445093        1      -0.74884200      -1.27011300       1.69530900 
H      12.68929677      18.54813791       9.12117543        1       0.03289200      -0.16165300       0.26005500 
H      13.58246157      19.19373157      16.85420903        1      -1.25178200      -0.06435500       0.94133500 
H      13.44636433      17.42993803      26.14410677        1      -1.45151000       1.30279000       0.27627000 
H       4.54356897      11.28087636       5.77831115        1      -0.80804500       1.72122400      -0.50994000 
H       4.47471659      13.40493127      12.85797628        1      -0.84912300      -0.80963300      -0.09904600 
H       4.57883176      12.45179076      21.51330402        1       0.45467100       0.05877100       0.72506000 
H       2.74816662      13.16103602      29.95430781        1       1.05135700       0.97342200       0.08889500 
H       5.22699148      27.18693364       5.72206905        1      -0.06563600       0.25194800       0.36667700 
H       4.89220348      28.11842696      13.63981648        1       0.49101600       0.04202200      -0.45067100 
H       3.07633344      27.38905940      22.31165932        1       1.76606900       0.35764800       1.51686700 
H       5.49017292      27.72659261      30.79036455        1      -2.39629700       0.37414500      -1.56819500 
H      13.95017723      12.75304790       6.09221638        1      -0.70535600       0.02444000       0.57743700 
H      12.76669037      11.67519513      13.41136233        1       0.66084700       0.77454900       0.11033400 
H      12.24955651      13.65161454      24.11126212        1       0.63489500       0.10256600      -1.39603100 
H      13.43404669      14.19903139      28.95302747        1      -0.04165600      -0.73053800      -0.02809400 
H      14.69052664      26.79311653       6.94729056        1      -0.05856500       0.45940600      -0.95555000 
H      13.82152134      27.62714073      15.65899378        1      -0.19164700      -1.38113000      -0.37495400 
H      13.28877020      28.95581649      20.76465824        1       0.01207400      -0.11377400       0.35155900 
H      12.92440494      30.30867961      29.06999081        1       0.95231900      -0.06269300       0.79820600 
H       0.25916116       6.57300848       6.16377217        1       1.96641800       0.07915300       0.49626500 
H       1.28156016       6.31473419      14.04273223        1      -0.37738800       0.11258200       0.34682800 
H       1.03250394       5.89021703      22.46806300        1      -1.83511600      -0.30504400       1.08274000 
H      -0.23098338       5.46283821      28.41858820        1       0.86177100      -0.19470400       0.96997000 
H      -0.86109215      20.99106493       7.25010644        1      -2.49960600       3.10807300       3.22661700 
H       0.56579427      19.38561702      14.09448025        1       0.04341900       0.27018200       0.07266100 
H       1.79460009      20.69589246      22.04479204        1      -1.93977900       0.82152300      -0.63733500 
H      -0.82803907      22.55541224      30.77121273        1      -1.14024500       0.07620600       0.26456900 
H       8.46438590       3.09770194       5.26852507        1      -0.35653800      -0.24357400      -0.00407200 
H       7.55791108       4.67607294      14.73630746        1      -0.96166600       1.10782200       2.35811400 
H       8.84427886       5.38390179      23.69417238        1      -0.52662100      -0.62019400      -2.24669200 
H       8.19205706       5.77857591      29.58197167        1       0.02923200       0.45174200       0.42392200 
H       9.89405238      20.44174097       7.90577718        1       1.22718300       0.32084100       2.17247800 
H       9.34999987      20.49039640      15.10943193        1      -1.00656100      -0.44149400      -0.40494000 
H       8.74033987      19.49716856      20.88116769        1      -0.46135500      -1.27385100      -0.05446100 
H       8.74626528      19.32427169      29.81315412        1      -0.59843000      -1.64307500       0.46917400 
H       7.94762829       8.95183301       1.74791747        1      -0.85900100      -3.50592500       0.59720800 
H      10.43991347      10.12377065       9.48428853        1      -0.12997400       0.02623200       0.92659300 
H      10.03418383      10.58265775      18.16124655        1       0.39068400      -0.36002800       0.53810600 
H       7.48032040       9.79156364      25.12986379        1       2.41299800       1.33915900       0.25438100 