768
Lattice="17.8678485777 -0.289773972005 -0.412512265744 0.0625401194746 31.6171034338 -0.0082090270792 -0.968755818442 0.232911542309 32.6802070606" Properties=species:S:1:pos:R:3:Z:I:1:forces:R:3 energy=-99804.1026651 stress="1010.73694 528.030445 1243.00871 528.030445 -4375.623633 -476.872868 1243.00871 -476.872868 660.147526" pbc="T T T"
I       2.22766948       0.54488715       7.06621789       53       0.52692500       0.48144000       0.18433700 
I       1.89135597       2.00812536      14.23953905       53       0.26506600       0.20580000      -0.24070300 
I       1.10992726       2.45934489      23.29888265       53       0.45636800      -0.09473400       0.27350000 
I       1.35831498       1.08366591      31.04620236       53      -0.22552900       0.11994400       0.57728600 
I       2.16849362      17.04386774       6.31266138       53       0.45261100      -0.11408400      -0.07808500 
I       2.39546477      17.28897369      14.51763486       53      -0.27951400       0.12948900       0.00572300 
I       1.94031484      16.61418800      23.26855446       53       0.13994300       0.35894100      -0.26530800 
I       1.70607247      17.27469495      31.20797070       53      -0.51281400      -0.03048000      -0.31652500 
I      10.59516276       0.96122188       5.44461430       53       0.00473200       0.20327000       0.23252100 
I      11.35675112       0.92120008      13.72108533       53       0.00122300       0.03511800      -0.14895100 
I      10.94012111       0.92366828      22.18909489       53       0.26340400       0.35448500      -0.46394000 
I      10.89004624       0.87394166      29.79397647       53      -0.11644000      -0.21216200       0.35621700 
I      11.01664162      16.50951323       5.74662952       53      -0.23953000      -0.07155000       0.45416700 
I      10.94855313      16.73917354      13.70465404       53      -0.10996200       0.18062800       0.03073400 
I      10.78271591      17.65876684      21.96670174       53      -0.22685600      -0.35646400       0.07459700 
I      10.56477347      17.26902744      29.97409446       53      -0.54989300      -0.28733200       0.41661600 
I       6.57682466       8.38467704       5.80099319       53       0.22134300       0.32353300       0.49975300 
I       6.02437302       9.71007853      13.49760470       53       0.36029600       0.04988900      -0.03441600 
I       5.75064952       9.81916532      21.85350636       53      -0.31495000      -0.04976600       0.39345200 
I       5.26737181       9.22528773      29.79407728       53       0.35630500      -0.17275400      -0.12885300 
I       6.77815252      24.92412746       6.53715211       53      -0.57060600      -0.35093900      -0.15914300 
I       6.45067629      24.96499644      14.72957887       53       0.22402500       0.26018800      -0.09957700 
I       6.04136027      24.86286624      22.51853938       53      -0.33069500       0.11813900       0.29683800 
I       5.25248213      25.76345313      31.37868017       53       0.29932500       0.19079000       0.08234100 
I      15.49416186       8.74777528       6.00269883       53       0.78370400       0.51813500       0.78038800 
I      15.43680253       9.27649182      14.99957155       53       0.56894800       0.08325300      -0.61599900 
I      14.41040024       9.66668127      22.90315195       53       0.27855700       0.16779200       0.51584000 
I      14.05841301       9.22341926      30.90629150       53       0.14463000       0.09031900      -0.02276600 
I      15.93294974      24.61197671       5.24616499       53      -0.64129500       0.02649800       0.28404100 
I      15.52776267      24.09034100      13.29836320       53      -0.56877500      -0.29153300       0.54081200 
I      15.12267742      24.79868778      21.50526624       53      -0.25142200       0.15687400      -0.02978800 
I      15.12230780      23.79006391      29.38443135       53      -0.28800200       0.10020500       0.02838400 
I       6.67969613      14.03680500       1.44816015       53      -0.02195800       0.08623200      -0.11368400 
I       6.47177314      13.68313869       9.94397777       53       0.23536700       0.31987600      -0.04295100 
I       6.76754657      14.44854035      18.05541497       53      -0.58811600      -0.25773300      -0.17753400 
I       6.28044640      14.40071885      25.81720790       53      -0.26676000      -0.07275800      -0.15249000 
I       6.62911724      30.32271846       1.07437144       53      -0.08328200      -0.12597800      -0.06192800 
I       6.43680790      29.76808474       9.93241772       53      -0.06291800       0.00915000      -0.20178200 
I       6.69640947      29.96580398      17.87824987       53       0.47344100       0.12853700       0.14678800 
I       6.08828979      30.37856571      25.88866472       53      -0.05915600       0.08635000      -0.00132500 
I      15.99051882      13.52409923       1.93569917       53      -0.29849900       0.28507900      -0.06999100 
I      15.47672965      13.54244989       9.85518953       53       0.52903700       0.72421500      -0.04359200 
I      15.69627174      13.61855904      18.14307194       53       0.41499200      -0.07654800       0.12260400 
I      14.73880715      14.18636875      26.44370064       53       0.34144800      -0.01525400       0.29038600 
I      15.72601342      29.46426114       2.50607993       53       0.20416000       0.42314700      -0.02871500 
I      15.57754326      29.93332425      10.42075301       53      -0.66102000      -0.00037000       0.00927300 
I      15.78204293      30.93141141      17.83357370       53      -0.21132900      -0.55517500       0.66136100 
I      15.23170210      29.65168803      26.57262269       53      -0.20327400       0.17255200      -0.17915000 
I       2.14069168       6.13764476       1.74741187       53       0.14335000      -0.15918900      -0.29069300 
I       1.56772460       6.78288223       9.67641562       53       0.18276600      -0.10127000      -0.06042900 
I       2.53376681       6.01567829      17.68847594       53      -0.34805300       0.27338300      -0.11702900 
I       1.19361820       6.30697351      25.52541171       53       0.56116000       0.02636200       0.38569600 
I       2.23843938      21.59534559       2.52003080       53       0.30357200       0.30402400       0.16876700 
I       1.78178959      21.97322049      11.00105445       53       0.38134900       0.22903500      -0.11341800 
I       1.17115691      23.25041355      18.57222729       53       0.08509300      -0.12825600      -0.25172000 
I       0.76768353      23.42588838      27.34719969       53       0.25835800      -0.41474600      -0.32685000 
I      10.84026565       6.20395440       2.50434078       53       0.02245600      -0.08511100      -0.40408100 
I      11.17252862       6.19546739      10.33209714       53      -0.27656200      -0.02619400       0.49972100 
I      10.90619650       6.59552458      18.09017758       53      -1.00956300      -0.46245000       0.62663200 
I       9.77320618       6.40449618      26.69108541       53       0.19042200       0.08652200      -0.02071600 
I      11.46648144      21.96854475       1.49568229       53      -0.33400100      -0.11696200      -0.50182700 
I      11.20164104      21.97575590       8.90471005       53      -0.24793200      -0.17084700       0.18748900 
I      10.51675036      22.07918638      17.97705552       53       0.00119400       0.23645700      -0.58902300 
I      10.17987987      22.27126866      25.16592312       53      -0.32556600      -0.01274100       0.34149900 
I       6.10180893       1.13687694       5.42062667       53       0.53854900      -0.42184100       0.27868100 
I       6.32405444       1.27084842      14.12100404       53       0.26284700      -0.17343600      -0.05359500 
I       6.33252719       0.94657149      21.44770631       53       0.02160600      -0.45089900      -0.00089800 
I       6.53648414       1.96675235      29.52570461       53       0.11459600      -0.65244400       0.04890800 
I       6.45995854      16.25282178       6.02192823       53       0.01137200       0.40015800      -0.28353000 
I       6.28351740      17.65050690      13.17711866       53      -0.06829700       0.09050500       0.21434700 
I       5.76628353      16.82277997      21.57554088       53       0.31276200       0.41711900       0.26400100 
I       5.82865462      17.11667474      30.10235567       53      -0.03242000      -0.01766700       0.22900500 
I      15.54790645       0.66659805       5.83149958       53       0.18610500       0.31160900       0.18945100 
I      15.21025905       1.40990091      14.15485533       53       0.18881500      -0.24495900      -0.52492800 
I      15.02607320       1.15697999      23.11488212       53      -0.31351600      -0.00167700       0.01307900 
I      14.51385516       1.05939928      31.22429507       53      -0.37730400       0.28749100      -0.35257700 
I      15.61243417      16.48851514       6.21127145       53      -0.34710300       0.18511900      -0.44638800 
I      15.39966539      16.20302795      14.95215021       53      -0.28074700      -0.01547600      -0.43614200 
I      15.52144043      17.31734381      22.57983419       53      -0.00685500      -0.49805500      -0.25711500 
I      14.47497480      16.84704659      30.73686093       53       0.51817300      -0.08581500      -0.13824000 
I       1.72366557       8.82008335       5.59257433       53       0.65787400      -0.14108200      -0.09292500 
I       1.71050791       8.59195345      13.51904673       53      -0.35611200       0.40249000       0.25231600 
I       1.28265794       8.37511987      21.78572436       53       0.42332900      -0.21742700       0.07037100 
I       0.99617491       9.16995164      30.54467785       53       0.22717200       0.02009700      -0.14270900 
I       1.52870168      24.69133301       6.61055274       53       1.01781800      -0.66384800       0.19293500 
I       2.26739600      26.02526428      14.49305055       53       0.35454700      -0.50947000      -0.14758700 
I       1.01284243      25.49451636      22.90025812       53       0.47368900      -0.21746800      -0.04106200 
I       0.85694626      25.25583345      31.39858162       53       0.32554300      -0.24539700      -0.12730900 
I      11.01633411       8.70097507       6.47951378       53      -0.17137800       0.42581800      -0.05851700 
I      11.29489424       9.26127426      14.52651083       53      -0.31842900      -0.03152100      -0.06265500 
I       9.35386358       8.16261889      22.45128075       53       0.66286600       0.14700900       0.11870800 
I       9.57314092       8.90560610      31.04114579       53      -0.70810000       0.36277200       0.64380600 
I      11.15948093      24.33391043       5.20754428       53      -0.03231500       0.15694900       0.21857600 
I      10.82105559      24.03177811      13.57102672       53      -0.23398300       0.27886200       0.08392700 
I      10.47554842      25.12569766      21.03335613       53       0.32974300      -0.14280800       0.31740100 
I      10.39840983      24.85187234      30.00540016       53      -0.15049200       0.06921100      -0.27282100 
I       6.73269638       6.34757368       1.59106361       53       0.34929800      -0.09092400       0.41281800 
I       6.45323817       6.38923994       9.54039238       53       0.41643800       0.25022100       0.13627800 
I       6.66750478       6.72009061      17.51214376       53       0.17901800       0.36071200       0.16674100 
I       5.52198504       6.38309182      26.49657464       53      -0.01712300      -0.11562800      -0.31148500 
I       6.92741182      22.13070511       2.50435809       53      -0.31154400       0.18806900       0.22704200 
I       6.76310094      22.16441588      10.41714132       53      -0.35430700       0.20964700       0.17404100 
I       5.92479860      22.88693347      18.83870807       53       0.20930200      -0.27932600       0.33434100 
I       5.59548750      23.17966949      27.25650022       53       0.33387100      -0.14444700      -0.41245700 
I      15.37680394       6.19102380       2.14534909       53       0.38301400      -0.00064400      -0.36565900 
I      15.46643425       5.87678872      10.30864715       53       0.19620600       0.40992100       0.24270000 
I      15.51696936       7.29864475      19.10714591       53      -0.34630200       0.13104900       0.18963100 
I      14.41632027       6.72752272      26.75700302       53      -0.31257500       0.16797900      -0.19969200 
I      15.98651715      22.49203161       1.41177141       53       0.16696600      -0.20860500      -0.13018600 
I      15.65751865      22.39833650       9.40968333       53       0.36688100      -0.44721900       0.37800300 
I      14.86775465      21.01141821      17.98289409       53      -0.16196100       0.04024300      -0.14545400 
I      14.63028243      22.29589981      25.35371861       53       0.45751900      -0.31795000       0.00334100 
I       2.43637346      14.12932405       1.96268042       53       0.79079400      -0.28368400       0.76651300 
I       2.34341045      14.70505564      10.58457004       53       0.11237600      -0.01184500       0.16560900 
I       2.40987588      14.76062593      18.58148510       53      -0.01554800       0.04556400       0.46216900 
I       2.00064641      14.63827355      27.23312354       53      -0.54356000       0.27509500       0.00040700 
I       2.54989467      30.00876849       2.29958451       53      -0.46147700       0.45079100       0.37646100 
I       2.14526356      30.12659582      10.93031039       53       0.03807600      -0.06610400      -0.14149300 
I       2.20246404      32.28741601      18.90527838       53      -0.44266300      -0.28912700       0.24026300 
I       1.58819320      30.38970420      27.81728817       53      -0.32503100       0.09937800      -0.13039200 
I      11.06625726      13.82555441       1.52330502       53      -0.22127300       0.38988100       0.39790900 
I      11.32055178      14.64704057      10.04545629       53      -0.42649000      -0.44280400      -0.24284000 
I      11.30979818      14.32623481      18.02478334       53      -0.54881800       0.19005000      -0.29420700 
I      10.77751170      15.17953374      26.29897861       53      -0.32496400      -0.15897000      -0.43563800 
I      10.84399138      30.19594897       1.54430718       53       0.79375400      -0.21352900       0.20027000 
I      11.37358462      30.38265189       9.62311905       53      -0.41556300       0.02466000      -0.15238700 
I      11.57786842      30.03727403      17.95437836       53      -0.19970200      -0.29413400      -0.10304500 
I      11.01974012      30.19191879      25.58459776       53       0.28193300      -0.19796500       0.48754400 
I       0.33231693      12.96886882       6.07361598       53       0.05893600       0.16102200      -0.19178500 
I       0.97684978      13.11242599      14.14364250       53      -0.33342900      -0.02793900       0.28670800 
I       0.21166908      13.21834504      22.99954438       53      -0.28878200      -0.44895100      -0.38745100 
I      -0.21245720      13.33031446      31.08491268       53      -0.32044400      -0.04167100      -0.43794600 
I       0.08170334      28.86787766       6.58908525       53      -0.23250700      -0.52051300       0.66519200 
I      -0.00786894      29.49380528      15.22846614       53       0.02742800      -0.08562400      -0.14879100 
I       0.24102384      30.21272035      22.47544759       53      -0.19594800      -0.18660300      -0.06343900 
I      -1.48306633      28.73019165      31.57675477       53       0.33547600       0.23551100      -0.21791600 
I       8.85583671      12.49888827       5.77859605       53      -0.13615300       0.27955700       0.02611000 
I       8.71595538      13.18368527      14.32404865       53      -0.16873300      -0.38166200      -0.43993700 
I       9.34827244      13.41453285      22.21091775       53      -0.09064900      -0.37238800       0.00605900 
I       8.18084431      13.25709405      30.18603643       53       0.01226200      -0.04162300      -0.13074700 
I       8.82905300      28.76986929       5.89308357       53      -0.12404400       0.02049100      -0.17365500 
I       8.65748108      28.60181741      13.44515327       53       0.17200500      -0.49769900       0.17585700 
I       8.53145897      28.59968624      22.25212071       53       0.41294100      -0.05712300      -0.28344800 
I       8.41075613      29.00108954      30.12269903       53      -0.18499600      -0.68880400       0.24038200 
I       4.01997746       4.78330090       5.89037710       53       0.04734000      -0.01964000       0.18410700 
I       4.61515942       5.61744477      13.45268822       53       0.08924700      -0.14294200       0.40094700 
I       4.39122058       5.20076384      21.97644219       53       0.03276600       0.29799500       0.10815200 
I       3.68260702       5.19974458      30.98397687       53      -0.11377700      -0.40250600      -0.85059700 
I       4.84355813      20.85865720       6.03825464       53      -0.15369000      -0.06190500       0.42094000 
I       4.04937091      21.54088824      15.17078200       53      -0.24838400       0.10233900      -0.28625600 
I       2.88309645      21.31929542      23.19754464       53      -0.03223000       0.39032100      -0.15917500 
I       4.27613332      21.88782299      30.84424420       53      -0.25426600      -0.27809600       0.05152700 
I      12.92051580       4.90516962       6.00891924       53       0.13301200      -0.61351500       0.27465500 
I      13.34357700       5.23079878      14.48905498       53       0.03042500       0.03912700       0.07625600 
I      12.91594086       5.18532431      22.61112564       53      -0.07847100       0.33954400       0.23398600 
I      12.35585244       4.89785970      30.66135559       53      -0.30456100       0.38375900       0.51906400 
I      14.17969726      20.31437488       5.03651915       53       0.01422200       0.16829200       0.19135300 
I      12.90617902      20.48670335      13.72155881       53      -0.02609300      -0.13233600      -0.11572100 
I      12.33832349      21.27759556      21.86567022       53       0.09370300       0.16855200      -0.29288700 
I      12.29205785      20.98076317      30.59711807       53       0.00426100      -0.95126400      -0.77943900 
I       8.81095282       2.62603946       1.03612645       53      -0.18697500      -0.22158000       0.17513700 
I       8.23435369       2.48629355      10.25205557       53       0.14958400      -0.27886400      -0.36151500 
I       8.96213353       1.98235581      17.54089979       53      -0.16988900       0.36075400       0.25234900 
I       8.64939322       2.22102447      25.89113089       53      -0.52486900       0.49826100      -0.10684400 
I       8.88190256      18.15465337       2.06827466       53       0.27325500      -0.29370000       0.01927400 
I       8.82653592      18.15911732       9.58641263       53      -0.28709500      -0.35769000      -0.00816300 
I       8.95813389      18.46148994      18.05383059       53      -0.23547500      -0.31075300       0.13017900 
I       7.82300120      18.66217224      26.09672415       53       0.18198500      -0.21351300      -0.04775600 
I      17.79642434       2.24638468       2.25418336       53       0.24653500       0.04885000      -0.24977000 
I      17.34488407       2.41462392      10.09017624       53       0.16268200      -0.22459100       0.02695200 
I      16.98226134       3.44676703      17.98148078       53      -0.36903200       0.18376400       0.49248300 
I      16.72033819       2.26350634      27.38119149       53       0.12707400      -0.12383100      -0.19362600 
I      18.18596009      17.96538856       1.77708126       53      -0.10128700       0.21403700       0.40185700 
I      17.52954848      17.47491294       9.68614996       53      -0.29539400       2.23659500       0.57327900 
I      17.88066207      18.34966511      18.78528627       53       0.22777600      -0.16924700      -0.23081500 
I      17.19805021      18.05986365      26.25572390       53      -0.00834900       0.70999900       0.63237100 
I       4.20385784       9.88210561       1.97743060       53      -0.42223200       1.11206100       0.23129500 
I       4.21752360      10.48222398       9.36972465       53      -0.06562100       0.54650800       0.03249400 
I       4.05963067      10.73934614      17.69013668       53      -0.12697600      -0.46720400       0.36813000 
I       2.68608082      10.14108707      26.43663510       53       0.19825500      -0.02527900      -0.32426400 
I       3.61688389      26.40950010       2.16397672       53       0.25433700      -0.25891600       0.48111500 
I       4.23486723      26.12137873      10.05933791       53      -0.02586900      -0.58063600       0.27936200 
I       3.63703989      27.03671885      19.09063825       53      -0.23118000      -0.92554000      -0.54607700 
I       2.89498132      27.03092915      26.90268118       53       0.31609100      -0.29515600      -0.18225000 
I      12.70491632      10.22305821       2.23388786       53       0.15759000      -0.24073000      -0.06520900 
I      14.11443641      10.14858537      10.17799002       53      -0.37631400      -0.59383800      -0.09424000 
I      12.60619213      10.45450451      18.85096663       53       0.03979000       0.34193100      -0.19961400 
I      11.62801151      10.36926687      27.11667998       53       0.19611900       0.06951400      -0.18141700 
I      13.21182527      26.14754538       1.23341192       53      -0.03188100      -0.13775000       0.13198800 
I      13.09501108      25.90181322       9.49439454       53       0.06894000      -0.26036800       0.11573400 
I      13.50271116      25.86223332      17.34294738       53      -0.01210300       0.51661400      -0.45385800 
I      12.64749182      26.30482228      26.10955394       53      -0.30411100      -0.61696900       0.20246600 
H       0.49466261      10.24830947       0.67164138        1       0.91745900      -1.69329600      -2.04363800 
H       0.62904648      12.02839453       8.88875529        1      -0.73843100      -1.46932100       0.69214600 
H       0.97085848       9.80483160      19.22936694        1      -0.77152800       1.40777100      -0.95022600 
H      -0.30441317      10.76804515      27.43661719        1      -0.84231300      -0.77122100      -0.68110600 
H      -1.49693370      26.83869923       2.86956001        1      -0.41446400      -0.66750700       0.16860700 
H       0.46614587      27.23468348      12.34626167        1       0.14270700      -0.20543000      -0.54832500 
H      -0.98824488      26.91006238      18.57793858        1       0.80120100      -0.52284300      -1.19918300 
H      -0.52668209      26.23218532      26.14805959        1       1.99145200       0.24488200      -1.31645600 
H       6.87044553       9.31009771       2.33058881        1       0.79713400       0.78833900      -0.41889100 
H      10.72560911      10.00168024      10.48346012        1       0.64679300       0.13554600       0.84881900 
H       7.44018581      11.39164101      18.21785433        1       0.34321300       1.25952600      -0.59977900 
H       7.21823254      11.51602987      25.70149442        1      -0.50430900      -0.15919100       0.90622700 
H       8.39173648      27.55531410       1.48150028        1       1.16751800      -1.47595300      -0.48826400 
H       9.36793663      27.03493591      10.02528094        1       0.82576400       3.93141000       0.64002200 
H       9.26926946      25.78905365      18.83138899        1      -0.82707600       1.12143000      -2.71806700 
H       6.82823248      26.49358000      27.05924734        1       1.76963100       0.46017100       0.61941400 
H       3.37977517       2.06323540       1.66566169        1      -2.98228100      -0.45568600       0.30688400 
H       3.49814930       2.39838405      11.57310613        1      -2.30903300      -0.71989000      -0.08005700 
H       4.63173225       4.39590549      18.80188760        1       0.23071600      -1.90541300      -0.97033700 
H       3.21455603       1.62567450      27.57008363        1       0.38814200       0.76320300      -1.15750000 
H       6.26677148      18.72250483       1.17582654        1       0.82907600       0.38958900      -0.88953400 
H       4.14004696      19.27746438       8.85585605        1      -0.72545800      -1.72696800       1.33951500 
H       3.57885783      19.36626687      19.59009981        1      -0.01566100       0.46562600      -1.67879500 
H       4.98801441      18.66046364      26.66706520        1       3.50905400      -0.24466900       2.44827400 
H      14.29102621       2.31494869       1.45505463        1      -0.80326300       0.18627300       1.32772700 
H      12.40143790       1.86126299       9.89760623        1       1.10811500       0.87104000      -0.03611600 
H      13.13394643       2.59636294      18.74553327        1       1.73108200       2.85011000       3.14825100 
H      12.82444920       4.23373800      27.65466960        1      -0.53463500      -2.54163700      -0.39153500 
H      14.15147478      17.25702039       1.32992246        1       0.72868400       0.78406300       0.97475500 
H      13.44685474      19.69683244      10.34742772        1      -1.19067600      -0.09722400       0.87626800 
H      13.68182516      15.83108327      18.81513792        1      -0.48866200      -2.62158100      -0.18899300 
H      13.68842028      18.99707550      25.69258078        1       1.59158500       1.27701100      -0.28146100 
H       3.51754061      11.80403924       4.85470070        1      -1.14723000      -0.13387800      -0.11441600 
H       3.98322522      13.84932719      13.37485928        1       0.22689200       0.78451700       1.75215200 
H       5.57152431      13.41094560      21.45846195        1      -0.99208200       0.24656700       0.56758200 
H       4.40820070      13.35516046      30.73929349        1       0.48978600       0.66484900       0.98115100 
H       5.31737540      28.36234231       6.18719829        1       0.40818600      -0.47523800      -0.27561900 
H       5.47053556      28.60111483      15.79479330        1      -0.78813600       1.03591200      -1.88459800 
H       3.86849739      27.92633932      22.45694011        1       0.45737600       0.74502000      -0.80835000 
H       4.19479349      30.45608919      29.46821291        1       0.31452900       1.03805200      -1.75975000 
H      14.13147762      12.88825397       5.13670247        1       1.10044300       0.34420600      -0.06572100 
H      14.98160781      12.54855686      13.14695848        1       1.44490700       0.18140500      -1.11352400 
H      14.00584245      12.77529177      21.82775209        1       0.44841200       0.16223500      -0.17562600 
H      12.97864899      13.75670937      29.51446022        1       1.51159300       0.91948200      -0.90595000 
H      12.93983888      28.79432429       7.43544999        1       0.69983500       0.58483000       0.09294400 
H      13.01086906      28.35327389      12.77851042        1       1.78446200      -0.19667800       0.50120100 
H      14.67194258      28.38096689      21.49577932        1      -0.72627700       0.31038700       1.63120100 
H      12.34983771      28.58789709      28.94055127        1       0.42074200      -0.20681600      -0.80883600 
H      -0.48725697       6.24962946       6.40037334        1      -0.93144900       0.17498000       1.33176500 
H      -1.03253615       6.26280646      15.59485125        1      -0.03789600       0.27497500      -1.06668200 
H      -1.01882457       5.42546432      21.57015543        1      -0.14416800       0.45087600       2.53529200 
H       0.24143826       6.45684375      30.36874889        1      -0.31596400       0.65822600      -0.02033900 
H       0.63762513      19.11600253       6.93196436        1      -0.03350700       1.42038100       1.57410300 
H      -0.42255921      18.87078865      14.71254885        1      -1.95541500       1.36025100       0.93015100 
H      -1.31573842      20.64596072      22.81151774        1      -0.79730000       1.32186200       0.00058900 
H      -0.43326699      19.92250228      31.89981491        1       0.12750000       1.25243900       0.19314500 
H       7.70811351       5.35859058       4.54342869        1       0.05154100      -0.74475500       1.25030900 
H       9.69270843       4.48104640      12.97019355        1      -0.84074200       1.39167400      -0.35512200 
H       9.93147483       3.96731424      20.60974406        1      -0.50384100       0.63673800       0.95111500 
H       7.27308599       4.60958253      30.16580610        1      -0.97935400      -0.77652900      -1.38597500 
H       9.23883945      19.81548455       5.32764432        1       0.22530000      -1.10629800      -0.53857200 
H       7.29999188      20.67313237      15.03741942        1       3.15491300       0.21404300      -0.60654200 
H       7.13953503      20.25099268      21.57413572        1       0.14324500       1.68201700       0.30770000 
H       9.05579097      20.39352244      31.10075441        1      -0.70871200       0.07467200      -1.63904600 
H       7.99297041      10.82435774       1.77558038        1      -0.10049200      -1.64394800       1.49870700 
H       9.59219112       9.18874320      11.39616708        1      -1.48379800      -0.91927700       0.18601500 
H       7.10105076       9.82520143      17.93214312        1       0.89357900      -0.74168100       1.08010400 
H       8.76260896      10.75974550      26.14564433        1       0.18311200       1.45537500       0.51359700 