768
Lattice="17.8532455694 -0.138556770678 -0.167896304402 0.308518329536 30.281272595 0.0843292047703 -0.526954822267 0.338676495401 32.7435787805" Properties=species:S:1:pos:R:3:Z:I:1:forces:R:3 energy=-99807.7555156 stress="63.545638 -736.375764 729.803664 -736.375764 -1995.305329 -1112.901292 729.803664 -1112.901292 -1579.729193" pbc="T T T"
I       2.35143251       0.94056291       6.71503354       53      -0.14939200      -0.05343900      -0.03183300 
I       1.81542731       1.99568788      15.37302032       53       0.30740500       0.17859000      -0.43455200 
I       2.41445911       2.63107967      23.62712469       53      -0.54663500      -0.61374200      -0.27448800 
I       1.97213328       0.81333778      31.71173183       53       0.60743100       0.46970400      -0.63356500 
I       2.47594534      15.65019241       5.76756021       53       0.08423400       0.20499600      -0.07185900 
I       2.25874639      16.72356854      14.85599003       53      -0.04903500       0.03584400      -0.04988800 
I       1.96834597      16.55297408      22.93612346       53       0.06537700      -0.13454600       0.11869300 
I       1.98127753      16.30378488      31.15752796       53       0.02575200       0.23448900      -0.35060000 
I      11.56788387       1.06111179       5.34610093       53       0.16481400      -0.45307100      -0.12772000 
I      11.28954895       1.49062011      13.39847152       53      -0.62565000      -0.40376300       0.58277800 
I      11.32552737       1.38882205      21.93791411       53      -0.20863000      -0.03601800      -0.09187000 
I      10.93521952       1.28360006      30.29698811       53       0.20782200       0.00457900       0.15177600 
I      11.71048939      16.20954427       5.89241726       53      -0.22536200       0.03011600       0.20246800 
I      11.21209282      16.60496076      13.89848214       53       0.07796200      -0.02659900      -0.03913700 
I      10.88851408      16.15513703      22.87478156       53       0.41664700       0.11116700      -0.12384000 
I      10.64245910      16.62433438      31.17049485       53      -0.02446300      -0.05685400      -0.31183400 
I       6.60346034       8.44091501       5.30661883       53      -0.06930500      -0.50854100       0.15297400 
I       6.64572639       9.46691748      13.58061061       53      -0.10143100      -0.01359500      -0.22957100 
I       6.03518933       8.96310239      22.49027075       53       0.39684000       0.73101300       0.07155900 
I       6.28256159       9.01835652      30.36596822       53       0.12136100       0.17638800      -0.05118400 
I       7.55628456      23.65697902       7.41953868       53      -0.61032700      -0.59654100      -0.37955100 
I       5.78940689      24.37738641      14.68688041       53       1.06896300       0.13740300      -0.37441300 
I       6.13124082      24.82242553      23.11587731       53      -0.02943300      -0.40976100       0.21064500 
I       7.21503710      24.06946868      30.99536814       53      -1.16074300       0.37172100       0.40225600 
I      15.49859809       8.57375953       6.60184730       53      -0.27106000       0.26353400       0.44926800 
I      15.64470122       9.94887176      14.19953285       53      -0.24534000      -0.57641500       0.60000700 
I      14.69472959       9.05677268      23.81260897       53      -0.00381700       0.05569100      -0.44763700 
I      14.93206932       8.82429730      30.90546800       53       0.14884700       0.02955400       0.20767200 
I      15.70190755      24.41653944       5.41171162       53      -0.08672400      -0.36432500      -0.22137300 
I      15.97079036      23.62981174      13.81957145       53      -0.16641500      -0.31625600      -0.06799400 
I      15.57258790      23.71057672      22.20248370       53      -0.06592300      -0.03740900      -0.07367700 
I      15.40858187      23.51040349      30.17331409       53       0.39244100      -0.21693300       0.25249100 
I       6.20040060      13.77676537       2.51298567       53       0.38048800      -0.00878700      -0.07829200 
I       6.94564050      13.26328214       9.75159150       53       0.14711800       0.42266800       0.00672100 
I       7.06197610      13.91976052      17.96594426       53      -0.25457000       0.09245100       0.25429400 
I       6.08737788      13.94240261      26.70273171       53       0.10682600       0.37006900       0.18941000 
I       7.32855140      28.31238053       1.62106728       53      -0.26062400       0.05767500      -0.14632500 
I       7.08550244      28.78155062       9.34819765       53       0.16783600       0.04316500       0.13964700 
I       6.63770157      29.00418828      17.82839085       53       0.40278200       0.08258200       0.18405300 
I       6.76651147      29.53767803      25.76403116       53      -0.04209100      -0.28674300       0.05467400 
I      15.22127055      13.84074687       1.73762192       53       0.34904600      -0.67420100      -0.07030000 
I      16.24822792      13.36221651      10.48338303       53      -0.03314500       0.01742300      -0.24734300 
I      15.82429457      13.66015925      18.87905524       53       0.02839400      -0.17925700      -0.61295800 
I      15.07905265      14.09143606      26.46079714       53      -0.02986500       0.18762600       1.08229900 
I      15.99500310      28.98607844       2.48542775       53      -0.87397000      -0.20563700       0.38183600 
I      15.91403018      29.21762214      10.86718018       53      -0.16258000       0.34651000       0.25840300 
I      15.89550850      29.79585099      19.64289555       53       0.16319100      -0.23696900      -0.18710500 
I      15.50534600      29.90380041      26.31436898       53      -0.16363400      -0.23400500       0.26708200 
I       1.95350461       5.95945425       0.94211639       53       0.38689700       0.35079100       0.28955300 
I       2.31224415       5.86555078      10.01133510       53      -0.10637800       0.09670000      -0.31277800 
I       2.64766429       6.49364654      17.56399386       53      -0.24108400      -0.01954900       0.12614500 
I       1.72012581       6.57846935      26.43124765       53      -0.15626600      -0.12458700      -0.30481500 
I       2.83923329      20.79229748       2.33545151       53      -0.00824700       0.20082100       0.08643300 
I       2.33899051      20.85340821      10.58915918       53      -0.43119200      -0.44056700      -0.31372300 
I       1.66220783      22.15098255      19.15070080       53      -0.00749000       0.01466400      -0.21892400 
I       1.79775858      21.57931992      27.28429262       53       0.45710200       0.00616100      -0.05344100 
I      11.19384065       6.05020734       2.31524210       53      -0.18912900      -0.07881700       0.05089800 
I      10.81191393       6.31274499      11.42263269       53       0.44422700       0.28758700      -0.19847500 
I      11.19416770       7.05252398      18.51306005       53       0.31892100      -0.10705200      -0.00280800 
I      10.37633299       6.00837433      27.36696236       53      -0.09950600       0.53226700       0.38285300 
I      11.20430219      21.28899521       1.85320350       53      -0.32109400       0.08163400      -0.29196700 
I      11.38838540      21.07882276       9.63727674       53      -0.73123300      -0.43151600       0.41537900 
I      10.79856851      21.41404505      18.18032494       53      -0.19614700       0.24565200      -0.16822600 
I      10.30369075      22.41871665      26.35029290       53       0.26226400       0.04362500      -0.07594700 
I       7.64845083       1.48516122       5.31203836       53      -0.63426600      -0.07611700       0.08737700 
I       6.65433263       1.38807508      14.24264377       53       0.09107800      -0.09680100      -0.71473100 
I       6.25437783       1.19260571      21.49228953       53      -0.19700500       0.12842900       0.36370100 
I       6.11503675       0.93180930      30.38993264       53      -0.17845000       0.39211300      -0.18298700 
I       6.72719694      15.88516608       6.28075373       53      -0.19664800       0.26425300      -0.18229500 
I       7.02266864      16.43446017      13.57155115       53      -0.02272400      -0.16213300      -0.03911800 
I       6.81593021      17.17890062      22.60001288       53      -0.01198400      -0.17526200      -0.21831200 
I       6.24478742      16.54833382      30.39117118       53      -0.32904200       0.43495500       0.10265900 
I      15.66994557       1.14287305       7.06245456       53       0.00211100       0.03906800      -0.23404200 
I      15.45150504       1.45384324      14.90917992       53      -0.08882700      -0.17253100       0.14772800 
I      15.82515156       1.84619919      23.00975594       53       0.07685300       0.19674900       0.03879200 
I      15.23071258       1.02662426      31.41226993       53      -0.37646200       0.34619500      -0.54060500 
I      15.80828330      16.16897000       6.09129642       53       0.18121500      -0.27198700      -0.04094000 
I      15.91227280      16.00732497      14.62592916       53       0.16826100       0.00128700       0.03337000 
I      15.06643300      15.92187330      22.64350234       53       0.39341100       0.30581000       0.07603900 
I      15.12530688      16.81645149      30.50677698       53      -0.44123800       0.21016300       0.45755300 
I       2.07048522       8.46097301       5.12797533       53      -0.15913900      -0.21085400      -0.01290500 
I       1.96385611       9.20411637      14.03150330       53       0.51672900      -0.22723300      -0.30472500 
I       1.68132103       8.36136133      21.78785813       53       0.10578000       0.40152500       0.00231400 
I       1.68164606       9.04471527      30.03614425       53      -0.01480500       0.35920000       0.29252000 
I       2.15902468      23.14676023       6.43313741       53      -0.12834100       0.05600100      -0.07805600 
I       1.94103737      23.85025898      14.64844306       53      -0.06364800       0.05248100      -0.19369000 
I       1.80252805      24.56686695      23.08225888       53       0.11434600      -0.09078900      -0.01012400 
I       2.37739455      24.57800479      30.88591066       53       0.27727500      -0.68130000       0.40436000 
I      11.21453055       8.73792000       6.73968134       53      -0.06390500      -0.02833500       0.31853900 
I      11.37382061       9.32914300      15.06027963       53      -0.24171500      -0.04214000      -0.43668200 
I      10.59669443       9.52150742      23.11010853       53      -0.46697500      -0.33800700      -0.31473600 
I      10.53038826       8.74413999      31.44222924       53       0.14416600      -0.35329400      -0.40382800 
I      11.58676591      24.32389572       5.57289130       53      -0.14502800      -0.59687300      -0.10007800 
I      11.43645859      23.29613082      13.37996902       53      -0.29357200      -0.13464100       0.05051300 
I      11.40172376      24.65303934      21.80212009       53      -0.49462100       0.34880000       0.16733100 
I      10.93052475      24.20129268      30.18588227       53       0.28872800      -0.27517800       0.37091200 
I       6.62695539       5.88287328       1.09674803       53       0.08025300      -0.42908200       0.35820000 
I       6.32638920       6.57254209       9.52907598       53       0.40622900      -0.26276700      -0.01083500 
I       7.04175458       6.61014062      17.94843502       53      -0.23243900       0.29293600       0.06863700 
I       6.47138500       6.39143462      26.10669988       53      -0.50756900       0.02966800      -0.25559100 
I       7.24357920      21.47342062       2.29235876       53       0.14958000      -0.00884500       0.38226100 
I       6.97412910      21.09173111      11.14123420       53       0.04740300      -0.11489600       0.32270000 
I       6.03341377      21.54779905      18.87530124       53       0.59216700      -0.29220800       0.60002000 
I       6.14560473      20.93348174      26.55814774       53      -0.08518300       0.43422300       0.25778900 
I      16.02359970       6.45666880       3.11487209       53      -0.46035600      -0.08581000      -0.18579700 
I      15.42805037       5.72244258      10.97377598       53      -0.30308500       0.12812100      -0.17992900 
I      15.59443559       7.29062582      19.72914264       53       0.18574400       0.03666700      -0.47284700 
I      14.99960597       6.18261074      26.67361525       53      -0.49481600      -0.15684700       0.23539100 
I      15.59055339      20.56683750       1.49664529       53       0.00731800       0.08193100       0.11161200 
I      15.52492352      20.94582886       9.13429442       53       0.25700300      -0.09644800      -0.05478600 
I      15.57441796      21.44892423      17.88282030       53       0.11832000      -0.22084400       0.41625100 
I      15.29064635      21.20842101      26.29006944       53      -0.16277500       0.14294300      -0.47198000 
I       2.18549749      12.78593078       1.80960502       53       0.27497800       0.58412500       0.05751900 
I       2.92282967      13.96013695      10.26515447       53      -0.22702300       0.04515300       0.24798000 
I       2.75537649      13.68808056      19.41921719       53      -0.01715200      -0.06340700      -0.20252200 
I       1.63952637      13.12813617      26.84566124       53       0.06504300       0.64433600      -0.13912200 
I       2.24857456      28.73993968       2.94006838       53       0.31531200      -0.16409600       0.29617200 
I       2.04837206      28.57848544      11.43567024       53       0.76817300      -0.49375100      -0.33829100 
I       2.73355202      29.64650261      19.33571671       53      -0.00253200       0.05086500       0.02208800 
I       1.62711668      28.23679686      27.21755240       53       0.02343000       0.16523300       0.18029700 
I      11.07580823      13.97253453       1.93162159       53       0.03552300      -0.10886500      -0.14668500 
I      11.08277519      12.82976242       9.58091023       53       0.06409800       0.09979700       0.02700600 
I      11.41961052      14.91303688      18.37043737       53      -0.16931100      -0.15822200      -0.12539700 
I      10.46711435      13.67503695      26.71869655       53       0.49343200       0.24702000      -0.17006600 
I      11.63846591      28.53422782       1.22397517       53       0.58912800      -0.42005300       0.13589700 
I      11.71646813      28.66583682       9.89771684       53      -0.28855400       0.31451300       0.17866400 
I      11.38540360      28.91944320      18.07352525       53       0.11956300      -0.07974500       0.03813900 
I      11.19992235      29.58637806      26.14829467       53       0.37455500      -0.21248100       0.45564100 
I       0.50957378      12.38754965       7.03286873       53      -0.32248400      -0.09164000      -0.60949500 
I       0.38085573      12.81544090      15.01321383       53       0.15329100      -1.31364700      -0.29828600 
I      -0.35001723      12.39822417      23.03251411       53      -0.36433300      -0.17147000      -0.08872700 
I      -1.12930859      12.56504848      30.59081043       53      -0.09599300       0.28362300       0.21450200 
I       0.44868309      27.40164571       6.95507446       53      -0.02594600       0.17710100       0.02904500 
I       0.38621167      27.99370753      15.62747562       53       0.04650400       0.26150900      -0.00903800 
I      -0.17676196      28.12921588      23.25630048       53      -0.02738600       0.33968500       0.01734200 
I      -0.66928073      27.37750565      31.17914247       53       0.25640900       0.43229600       0.26828800 
I       9.39888622      12.33842466       5.30057347       53      -0.16094400      -0.11734800       0.37486500 
I       9.55705887      12.78888229      14.73630318       53      -0.29638300       0.21095000      -0.04179700 
I       8.22235537      12.84903611      22.38062149       53       0.07988600      -0.04898200      -0.11258700 
I       7.89857576      12.67047740      30.69701760       53       0.29463400       0.16503000       0.05647700 
I       8.96576218      27.58854417       5.44617290       53       0.34477600       0.27840500       0.15510800 
I       9.20110631      27.83892145      13.82346071       53       0.19319300      -0.42478900       0.15267800 
I       9.06832337      28.01752054      22.15056870       53      -0.04251200       0.17068700      -0.00589900 
I       9.11342586      27.88833917      29.68412940       53       0.05836800       0.22778900       0.04957800 
I       4.44731450       4.64099621       5.54408171       53       0.08318000      -0.46136100       0.16289200 
I       4.80748135       5.33155835      13.39349714       53      -0.07625000      -0.05117400       0.19033400 
I       4.97174580       4.96321224      21.96323316       53       0.00060400       0.61707900       0.19242600 
I       3.11896525       5.19076674      30.05254718       53       0.53978200      -0.30626200      -0.11670700 
I       4.49225953      19.49301723       6.76395968       53      -0.04635900       0.01766000      -0.58875300 
I       4.29279794      20.33197992      15.22757130       53      -0.04354200      -0.43362300       0.16664000 
I       3.68024104      20.47012182      22.51180249       53       0.12497400       0.01426900       0.42680400 
I       5.08331193      20.17893103      31.70986442       53      -0.36421700      -0.13096100      -0.21637200 
I      13.67921591       4.80786493       7.07272633       53      -0.11808600       0.37677400      -0.06923700 
I      13.71745845       5.49866125      14.98424172       53      -0.09360000      -0.43887000       0.63852300 
I      12.70173582       5.20324407      22.94160859       53      -0.22180400       0.19370800      -0.06152000 
I      12.68940385       4.93602578      30.85388307       53      -0.10372900      -0.79965400       0.80987100 
I      13.42098037      20.30972342       5.67709883       53      -0.18250000      -0.15846100       0.05837000 
I      13.73362013      19.47856852      13.78274815       53       0.17170700       0.11058200      -0.00071000 
I      12.48527677      20.58450825      22.22996794       53      -0.08687300      -0.52860700      -0.02611100 
I      13.05104747      20.15771928      29.36032153       53      -0.32770600      -0.03629500       0.44228000 
I       9.60540056       2.13518946       0.89614278       53      -0.10496500       0.20313300       0.31156000 
I       8.94269513       2.41237770       9.51714676       53      -0.04786400       0.14168500      -0.05422500 
I       8.45435632       2.69468870      17.72207567       53       0.28477200       0.01765900       0.16586500 
I       8.96680490       3.15442887      26.01101783       53      -0.05372800      -0.80687200      -0.19591900 
I       8.86766159      17.69415436       1.89090297       53      -0.22899900       0.01585200      -0.17828200 
I       9.29323422      17.28902734       9.79687468       53       0.09629800      -0.32578700      -0.09389400 
I       8.49628725      17.89863171      18.62884249       53      -0.12933800       0.53198900      -0.16040700 
I       8.75535252      17.88609482      26.75644548       53      -0.01213800       0.15390800       0.20504200 
I      18.30130283       2.52614637       2.25322592       53      -0.14101000      -0.76170100       0.30711300 
I      18.25465896       2.41544631      10.46557904       53       0.08276300       0.60701100      -0.07702700 
I      18.09411622       3.22073909      18.96269098       53      -0.46114800      -0.40148200       0.09098200 
I      18.52293209       2.35347152      27.56123053       53      -0.00194700       0.18591300      -0.19692400 
I      17.61074977      17.07922636       1.69841237       53       0.28537600      -0.17852700       0.32551500 
I      17.70247190      17.26991415      10.33965000       53       0.06317500       0.25469700       0.50250800 
I      17.98240069      17.51468415      19.06697421       53       0.13127400      -0.34073100       0.22011500 
I      17.90798894      17.70358427      26.48327470       53      -0.04020200      -0.10780900       0.23814100 
I       4.88454583       9.73437196       1.54196178       53      -0.03215600      -0.25767100      -0.06591200 
I       3.51533764      10.08855200       9.31466300       53       0.43236400      -0.38618900      -0.25933200 
I       4.73943596      10.45405964      17.52943467       53       0.21933600      -0.45025400       0.80064600 
I       4.27304579      10.16043719      26.13246610       53      -0.03890500      -0.04488800      -0.31866900 
I       4.88888730      24.82269303       2.63382224       53      -0.29328500       0.57950400       0.46373200 
I       4.29632684      24.52476241      10.49154108       53       0.03624600       0.63035800      -0.13963100 
I       4.14839365      25.85801033      19.18255780       53       0.03899300       0.27337000      -0.45795300 
I       4.39651792      25.14980773      27.49272787       53       0.09831800       0.01357800      -0.47822300 
I      13.37025445       9.84698688       2.29925202       53       0.10338700      -0.05188500       0.23997600 
I      13.80298986      10.57167316      10.98311909       53      -0.28208900      -0.97123300      -0.32669700 
I      12.96045790      11.09661017      18.85096233       53       0.21039300      -0.59167500      -0.01162300 
I      12.49611481      10.14836867      27.33280289       53      -0.08326000      -0.17229900      -0.30163100 
I      14.22670518      24.43255374       0.63012064       53      -0.22332500       0.34459700       0.67459800 
I      13.75277975      25.28874000      10.71432208       53       0.00152100      -0.56551600      -0.75052800 
I      13.35838984      25.05488375      17.17225769       53       0.40055500       0.63025700       0.49135500 
I      13.73396635      25.76763173      25.65178165       53       0.12558800       0.28618700       0.72250600 
H       0.08963770      10.06414243       0.49210794        1       0.44320900      -0.16698800       0.10075300 
H       0.31974096       8.97469345       9.61897108        1      -1.33787800       0.83925000      -0.18062300 
H       1.60070948      10.48356068      18.38940117        1       1.46799000       1.32468400       0.16619600 
H      -1.40929189       8.94178060      27.84130063        1      -0.65626800       0.60767100      -0.71712300 
H      -0.44915852      24.26352488       2.89287641        1      -0.44014600      -1.19138900      -0.10962600 
H       0.44259634      24.05751423      11.07051286        1      -0.58082700       0.97640600      -2.18779400 
H      -0.06539064      26.17672068      18.00062661        1       0.17962900       0.10297400       0.25395500 
H       0.37246248      24.82056418      26.00942700        1      -0.28520100      -0.73028300       0.31361000 
H       8.89198132      11.19532852       1.28636887        1      -0.04840300       1.17960500       0.06246400 
H       9.11176941       8.54098699       9.47958255        1       1.22953500      -1.69161800      -0.80944700 
H       8.67899464      11.25915155      17.97871432        1       0.64664500       0.90300100       0.02993400 
H       9.10794476      10.69437108      26.06379386        1      -1.22913500      -0.22338800       2.49619500 
H      10.53582797      25.13930178       3.19809699        1       0.71586300       0.54953400      -0.68186700 
H       9.36553932      26.35605058       9.47625856        1       0.48976200       1.24291400      -0.48804600 
H       8.94255381      25.19068281      18.63281654        1       0.78890800      -0.65400600       1.88201000 
H       9.07112650      26.62809284      26.47265166        1       0.19889000       0.30562200       0.08619300 
H       4.18638686       1.10927482       2.79993895        1       2.42672700       0.53086600      -0.86082600 
H       3.80314084       1.44468688      10.14233240        1       0.33210600      -0.46223700       0.95958700 
H       3.66354438       2.33382535      17.54520368        1       2.70268400       0.00518900       0.59382900 
H       3.53750733       2.69059049      26.23897205        1      -0.20513500      -0.16064300      -0.23958200 
H       3.59623889      17.65835358       2.00458382        1      -1.32195300      -0.64000900      -0.24460200 
H       3.77285953      18.02021725      10.59889899        1      -0.36626500      -0.86984700      -0.29232800 
H       4.88936879      17.03980584      18.09414852        1       0.27431500       1.15951200      -1.41303400 
H       5.19163080      17.94771834      25.47618960        1       0.02742300      -0.65091800       1.27590000 
H      15.04540394       2.95876469       2.40873877        1      -1.05230200      -0.64358300      -0.76529900 
H      12.36509329       3.15027616       9.84610163        1       0.16512400       0.88533400       0.22539400 
H      13.45891100       1.63399783      19.16075554        1       1.72615900       0.97700000       0.67331900 
H      14.32745649       2.68355692      27.35355334        1      -2.53547300      -1.00636400       1.03338600 
H      13.69456703      17.83679520       1.25385070        1      -0.43746900      -0.53081100       1.30543400 
H      14.34624970      17.58206131      10.81943808        1      -0.18396800       0.37759600      -0.88167300 
H      13.75990619      18.19917165      20.57064803        1       0.67414200       0.78258000       1.29225900 
H      12.44685052      18.50625056      26.95705073        1      -0.89607800      -0.86830700      -1.06022200 
H       5.01439542      10.81569721       5.19379901        1       1.82061500      -0.96606700       0.25645700 
H       3.92231188      13.75405565      13.55171320        1      -0.57163500       0.90279300      -1.77636300 
H       5.00398335      13.14388399      23.96848622        1       0.02368900      -0.66435800       0.96988000 
H       4.61037270      13.88694760      29.42909773        1       0.05281000      -0.38570300       0.68031500 
H       5.70894978      27.49208488       5.76475809        1      -1.70055200      -0.21592800      -0.08252600 
H       4.65600816      28.11422209      13.52612565        1      -0.60561900      -0.23724300      -1.71241700 
H       3.49839973      28.54888548      24.26018575        1      -0.01981300      -0.08015700      -1.54727500 
H       4.96770614      28.32873803      31.74211105        1      -0.50632900      -0.35702000      -0.49682300 
H      14.33606171      12.61887228       5.50653769        1      -0.00863000      -0.58968500       0.61233400 
H      13.93681855      13.94388443      13.14240520        1      -2.09210700      -1.89987200       1.50580600 
H      13.61010257      12.41684578      24.80429752        1       0.86740800      -0.62972700       0.25135100 
H      12.44259787      13.23566870      29.21750000        1      -0.62188200       0.26553200      -0.69750900 
H      14.24721641      27.30893537       7.33879793        1      -0.05191900       1.55209400      -0.64770700 
H      14.03940093      26.28532723      14.18184192        1      -1.19592700      -2.01262000       0.30566900 
H      12.39770634      27.98143511      22.00772496        1       0.47513700      -0.06284800       0.55467400 
H      12.34473247      26.59490140      29.70853595        1       2.79108800       0.65901100       0.20101300 
H      -0.28433184       3.71257045       6.83067972        1      -0.93579100      -2.09694400      -0.44777900 
H      -0.92752940       6.36653750      13.33349575        1       0.61223200       0.95521900      -0.23065600 
H      -0.11325791       6.24502968      21.62962693        1       0.35870600      -1.37403000      -0.37304100 
H      -2.04704771       4.40515343      30.39880839        1      -1.61891200      -1.89671000      -0.73774000 
H       0.92308294      19.71646545       5.76192366        1      -1.71403100       0.32052200       0.42539600 
H      -0.65690939      20.23272354      14.84832860        1       0.40590400      -0.12888500       0.35795100 
H      -0.85947290      20.20633048      21.60249599        1      -0.89961700       0.78247900      -2.66963300 
H      -1.46524454      20.45607385      29.81442112        1       0.06439100      -0.36952300       0.26046200 
H       9.50000091       3.59859182       5.11482069        1       0.18527500       0.11912800       0.75170900 
H       8.20672666       4.02584210      14.45712237        1       1.05023100      -1.17384800       0.08660400 
H       8.25153744       7.18705118      22.14682479        1      -0.76375200       3.45244700       1.32779300 
H       6.79915481       4.96190101      31.28623894        1       0.47499000       0.70545800      -2.28985400 
H       8.34957040      19.29547857       5.01127231        1      -1.08041600      -0.52449800      -0.90684600 
H       8.67337121      20.14491389      16.26569477        1       1.86987800       0.05189500       1.16232000 
H       9.61170433      20.57194007      23.13176947        1      -0.05019800       0.29766200      -0.17015200 
H       8.68553764      20.45252476      29.52326566        1       0.20202000       0.22588800      -0.13375900 
H      10.26800909      10.21009414       0.41090993        1      -1.34383700       0.65519800       1.86740300 
H       8.05753777       8.81901707      10.81841959        1       0.50603600       1.18940100      -0.16949400 
H       9.57028518       9.80378612      17.86833222        1      -1.01592700      -1.14666300       0.76899600 
H       8.74373118      11.68541967      27.55149678        1      -0.00739900       1.16542600       0.30701200 