768
Lattice="17.3746518936 -0.115249884175 -0.585936084903 0.29871238025 29.4077686323 1.0029717964 -1.31173104828 1.29504662134 31.4985206724" Properties=species:S:1:pos:R:3:Z:I:1:forces:R:3 energy=-99807.6871267 stress="1850.473839 -694.424374 -1010.691726 -694.424374 2763.190669 -861.655416 -1010.691726 -861.655416 558.112209" pbc="T T T"
I       2.00898199       1.24791881       6.24351155       53       0.12261300      -0.31971000       0.25475600 
I       1.79227720       1.51473529      14.11482757       53       1.16148600       0.39616100       0.53826500 
I       0.43177891       2.19554714      22.06073187       53       0.16783000       0.10981800      -0.10955500 
I       1.27568692       2.51644539      29.67814922       53      -0.38926900      -0.07689900      -0.04557700 
I       1.50957751      16.85738014       6.59773095       53       0.31133900       0.03149500      -0.34835100 
I       1.28696434      17.00533980      13.74027007       53       0.45288400       0.30805200       0.23533900 
I       0.76064748      17.70280297      22.10527592       53      -0.05949100       0.07167100      -0.07668600 
I       0.79575507      16.59769966      30.36593936       53       0.55876800       0.56150600       0.31665400 
I      10.52894040       0.97639626       4.96110238       53      -0.10226800       0.24136300       0.03135300 
I      10.84104666       1.41923647      12.46530746       53      -0.40455200       0.14403200       0.12206700 
I       9.78860473       2.28331805      21.20917869       53      -0.44042000      -0.19911700      -0.16792700 
I       9.46365268       2.35576359      28.75343399       53       0.11875500      -0.52453700       0.14181700 
I      10.47707537      15.97139891       6.03669495       53      -0.20078900      -0.30765400       0.07398000 
I      10.62585084      15.85675261      14.60056168       53       0.75545000       0.96376600      -0.38587100 
I       9.99472623      16.95443273      21.84240614       53      -0.08945600      -0.13958500       0.01628400 
I       9.17604541      17.06380344      29.22878829       53       0.24361400       0.10816400       0.21712800 
I       6.43459195       8.74606461       5.84506450       53      -0.19957600      -0.27886600      -0.22026100 
I       6.24370431       8.86295003      14.02982441       53       0.26604800       0.37168600      -0.39715900 
I       6.07349746       9.68846993      20.91043906       53      -0.57581900      -0.32680200       0.24316900 
I       4.91998030       9.57650475      29.19811515       53       0.45338000       0.41347400       0.22501200 
I       7.16235832      23.21228833       6.65205221       53      -0.24463000       0.45938200       0.16213700 
I       6.69206543      23.56668102      14.85385481       53      -0.23397700      -0.10951100       0.07938500 
I       6.20594579      23.74909794      23.14415555       53       0.56677500      -0.19029800      -0.49136800 
I       6.14961517      23.98029670      30.20378656       53      -0.25681200      -0.14766300       0.65009900 
I      15.14369050       8.49300709       6.23603481       53       0.24883200       0.16945500       0.04609200 
I      15.25988179       7.72859397      13.91238310       53       0.43547900       0.47365300       0.60568500 
I      14.95752256       9.28841071      21.85389093       53       0.03749800       0.05719200      -0.45333700 
I      14.71984881       9.46134054      30.09808899       53      -0.28109300      -0.25342100      -0.02304500 
I      15.56346379      23.41646860       6.89330758       53      -0.21415100      -0.64155400      -0.40457500 
I      14.64876233      23.61112187      14.13138933       53       0.16582800       0.24254300      -0.51116300 
I      14.08844869      24.40476632      21.30390356       53       0.78265500      -0.03469000      -0.04023600 
I      14.13722664      24.35590854      29.92385657       53       0.74486100       0.41389700      -0.20320400 
I       6.13048133      12.88081472       1.91004951       53      -0.21112500       0.32390100       0.21068800 
I       6.36825729      13.64241724      10.56902469       53       0.42120100       0.41762200      -0.02422000 
I       5.77586181      14.07779920      17.78365400       53       0.05905300      -0.23480200       0.28698900 
I       5.66372528      13.66306882      25.13239250       53       0.02224000      -0.05865100       0.06115200 
I       6.35637238      28.23004844       2.31371568       53       0.00520300       0.09203400      -0.34482700 
I       6.58084014      27.86363650      10.26853853       53      -0.32151100       0.13110700       0.28854100 
I       5.22385533      29.97314076      17.75610299       53      -0.08831700      -0.24902400       0.37841200 
I       5.34255931      29.38787544      25.86445995       53       0.39477500      -0.45003900       0.35419900 
I      14.99892501      13.44083825       2.20748462       53       0.08867300      -0.06269700       0.07841800 
I      15.74345759      12.98167285       9.39707561       53      -0.50245300       0.03215500       0.45214400 
I      14.05228871      14.52221750      17.47512840       53       0.11304400       0.11124600      -0.04519900 
I      13.97868662      15.33595764      25.75227280       53      -0.82354400      -0.39243200      -0.49280600 
I      16.04093942      27.85135050       2.49487869       53      -0.33406900       0.03501200      -0.35749700 
I      15.63964575      27.99675269      10.76304905       53       0.02895500      -0.17932500      -0.05534000 
I      14.88031936      28.42463065      17.92433941       53      -0.25192600      -0.21294300       0.16866400 
I      15.11377477      28.20583373      26.56038007       53      -0.55233300      -0.13203200       0.60593000 
I       2.15132728       5.58449032       2.02230773       53      -0.67419300       0.50580300      -0.07343000 
I       2.15535966       6.27148995       9.78266617       53       0.10664800      -0.48428300       0.19884300 
I       1.25342804       7.54524538      17.54241323       53      -0.74863700      -0.16370300      -0.55431100 
I       1.38166292       6.42192335      24.57327047       53       0.35372000       0.44727100       0.20408000 
I       2.62772812      21.22219971       2.98674899       53       0.09298200      -0.53784200      -0.27558800 
I       2.40996510      21.38336049      10.37379508       53      -0.15335000      -0.30891000       0.24367400 
I       1.78143885      21.38572618      19.05333909       53       0.49419900       0.09788600      -0.03172900 
I       1.62311008      21.58642510      26.82207771       53      -0.05312400      -0.07667100      -0.22018700 
I      10.97425338       5.90783700       1.80735530       53      -0.16054600      -0.10393100      -0.00321300 
I      11.12359448       5.52185898      10.08798203       53      -0.24962600      -0.14516700       0.07388700 
I      10.20152044       6.87613346      17.88810253       53       0.00790000       0.49515600       0.12182000 
I      10.98022893       6.73902871      26.01324321       53      -0.14749000      -0.20638600      -0.22638200 
I      11.16228954      20.52491762       1.55260090       53      -0.62578500      -0.30267700       0.34554200 
I      10.76896912      20.67176257       9.86935938       53       0.30388600       0.11541200      -0.18206900 
I       9.95359539      21.66844339      17.50573923       53      -0.25482600      -0.24257800       0.13202700 
I      10.81404472      21.65629077      25.37305986       53      -0.99615100      -0.32401400       0.63843700 
I       6.20989542       1.56959881       4.83203512       53       0.16637100       0.23477700      -0.08237300 
I       6.35547284       2.09883140      12.93978168       53       0.00016200       0.14598500       0.20860000 
I       5.30843305       1.83235371      21.53596682       53      -0.43887200       0.60488200       0.05816100 
I       4.86067358       2.09298630      28.36299620       53       0.70841900      -0.34625300       0.41438700 
I       6.10726254      15.57773288       6.35371269       53       0.32843600      -0.02354200      -0.01589300 
I       6.27205849      17.28327891      13.65233074       53       0.05707000      -0.50523100      -0.00390900 
I       5.92858204      16.82576462      21.06121612       53      -0.30180200      -0.45118600       0.31879900 
I       4.80588210      15.49561528      29.40981111       53      -0.08741100       0.24465000       0.14594000 
I      14.70397632       0.87847431       5.51972791       53       0.37162900      -0.37916100       0.10340200 
I      15.25454099       1.23502727      13.35457534       53      -0.87567000       0.53458500      -0.55776400 
I      13.83483819       1.18430225      20.88710150       53       0.06467300       0.17308100      -0.00961600 
I      14.20239306       1.95304954      29.16411155       53      -0.32881200      -0.08824900       0.31693600 
I      14.13527178      14.91238270       6.19391097       53       0.85559100       0.55278300      -0.33404000 
I      14.37614748      16.62894816      13.27338649       53      -0.69479300       0.31313000      -0.90616200 
I      14.15502090      17.00901489      21.45591312       53      -0.30365800      -0.13565000       0.38255600 
I      14.06801713      17.77433728      29.86089812       53       0.15993200      -0.38044900       0.03185600 
I       1.94000224       8.55728175       6.19832692       53       0.15259500      -0.01711100      -0.08524900 
I       1.25900542       8.73883417      12.89490370       53       0.74688400       0.12180700       0.51056400 
I       1.48896098      10.16579758      20.76004556       53      -0.08050800       0.19476600       0.38786000 
I       0.80153494       8.90205495      29.26028601       53      -0.47403600       0.36626500      -0.31055500 
I       2.33144666      24.01240580       6.32057067       53       0.42786100       0.27703800       0.30237400 
I       2.49066134      23.94651020      15.22071555       53      -0.14799500       0.33034500       0.11491700 
I       2.43613954      24.13255354      22.74336812       53      -0.52844100      -0.35098500      -0.47276500 
I       1.66406763      23.96605001      30.18799194       53      -0.30215700       0.01843800       0.25846600 
I      10.86119200       8.29638338       6.24855446       53      -0.32517000      -0.05047300      -0.28472000 
I      10.74823284       9.12443836      13.87032059       53       0.34900900      -0.26660500      -0.16089900 
I      10.52734769       8.98938388      21.90148117       53      -0.48990500       0.62668300       0.48519900 
I      10.25899497       9.67145548      29.22979395       53      -0.10592400      -0.21398300      -0.20660100 
I      11.08473197      22.39403294       5.98200570       53       0.24201400       0.05375600       0.01012700 
I      10.85616662      24.68461064      13.30269084       53      -0.30842300       0.03498300      -0.05079000 
I      10.04318194      23.50406720      21.65176773       53       0.03751200       0.25399600       0.23132900 
I      10.23785760      24.72736144      29.30593210       53      -0.34011500       0.05593800       0.15528900 
I       5.85013175       5.68899433       2.15714609       53       0.78360600      -0.36263200       0.35989700 
I       6.68893454       6.37128401      10.08143794       53      -0.28661600       0.25215100       0.01203800 
I       5.43215949       6.93831990      17.29689281       53       0.02923100      -0.10175000       0.39901700 
I       5.71289752       7.19393587      25.15841117       53      -0.37798900       0.19684300      -0.30132200 
I       6.86081101      20.80590291       3.20780353       53      -0.18406200       0.53896000      -0.64486400 
I       6.45230054      21.96594080      10.94236235       53       0.48172500      -0.03023200      -0.10049700 
I       6.17472650      20.44299764      19.06108744       53      -0.11601500       0.05986200      -0.18397800 
I       6.05229778      21.18200931      26.68793737       53       0.01135000       0.13505600       0.14344500 
I      15.04802228       6.00150266       2.26697339       53       0.50570700      -0.28861100      -0.14847800 
I      15.31457007       6.32106717       9.96732514       53      -0.36729200      -0.74209900       0.34468500 
I      14.37168480       6.11727242      18.01567346       53       0.92309200      -0.73483000       1.08941800 
I      15.35034355       7.52084570      25.96949356       53      -0.23595100       0.06018300      -0.12356500 
I      15.28748441      20.53395980       2.02971145       53       0.03386900       0.03103800      -0.09070500 
I      15.24422542      20.80416613      10.76759935       53      -0.23894800       0.06161900      -0.22971700 
I      14.60492604      21.96416313      17.39401354       53      -0.27255700      -0.05545900       0.35306800 
I      14.78861537      22.33611351      26.17266818       53       0.80326700      -0.44807500      -0.17469300 
I       1.97754658      13.15765666       2.80941392       53      -0.15819000       0.11185600      -0.08649600 
I       2.32344323      13.69345671      10.79150546       53      -0.08915300       0.48490900      -0.03623300 
I       0.68091310      14.87370809      17.93581932       53       0.99444900      -0.54901800       0.07062200 
I       0.97883010      14.68066894      26.54686742       53      -0.41148600       0.18013700       0.06629900 
I       2.60159068      27.98526012       3.73006854       53      -0.17327200       0.08969800      -0.20275500 
I       2.70391982      28.66898380      11.26487374       53      -0.01005800      -0.01133700      -0.18144200 
I       1.91972060      28.32207565      19.05076701       53       0.05389000       0.25181000       0.19258700 
I       1.62153977      29.71512015      26.69969085       53      -0.39740300       0.06911800       0.20457800 
I      10.23065540      12.41061626       2.29802134       53      -0.02839400       0.26827600       0.49536600 
I      10.86944562      14.16703139      10.37799199       53      -0.09949500      -0.31944300       0.19053200 
I       9.88795096      13.39551245      17.92662040       53       0.11422700      -0.07551100      -0.35279500 
I       9.88035837      14.39828954      25.96004931       53      -0.11164100      -0.09314400      -0.36647700 
I      10.91182648      28.21990519       2.52712409       53       0.23480000       0.00125000      -0.78468200 
I      10.40233229      27.89561905       9.88496416       53       0.32040600       0.23690700       0.03299800 
I       9.62511720      29.01842997      18.76496953       53       0.53802800      -0.28403300      -0.21192700 
I      10.11258421      28.89552616      26.24122055       53       0.06764900      -0.30010400       0.18835900 
I       0.13560843      12.61832073       6.57581865       53       0.38973100      -0.04148000      -0.17284400 
I      -0.51310990      13.10155383      14.11012248       53       0.11928300      -0.08337300       0.35627700 
I      -0.43236303      14.03009700      22.07184865       53      -0.21104500      -0.98262900       0.59602400 
I      -1.92920380      13.55944780      30.13570634       53       0.18344300       0.20586200      -0.03302900 
I      -0.16227158      26.68307457       7.57680346       53       0.23873000      -0.10359700      -0.33451300 
I      -0.12471166      27.10060094      15.01185744       53       0.29785400       0.08143800       0.16659900 
I      -0.47229448      27.39644918      22.89460859       53      -0.02335000      -0.11082500      -0.02294700 
I      -0.39559654      28.00881672      31.15857620       53      -0.10955100       0.25289800      -0.08440500 
I       9.07163874      11.97856962       7.08415530       53      -0.08095100      -0.13877900      -0.05440200 
I       8.49101523      12.72119894      13.96994428       53      -0.07420300      -0.90183200      -0.66254600 
I       7.93859598      12.67125177      21.62769807       53       0.13947800       0.35783800       0.37450000 
I       8.14483333      13.02788262      30.11172431       53      -0.13307400      -0.18717100      -0.35507000 
I       8.78297518      27.00444790       5.28031544       53      -0.11871500       0.19879300       0.79627000 
I       8.29804423      27.79310493      14.84939894       53       0.30835300      -0.48084600      -0.00345600 
I       7.31335248      27.98406948      22.03723660       53       0.27655000      -0.20141200      -0.06956300 
I       7.50515622      27.73799414      29.98676731       53       0.19035400       0.19829800       0.39266800 
I       4.37849967       5.00214949       6.38299367       53       0.54515400      -0.06744500      -0.04300200 
I       4.38428344       5.36857993      13.76134124       53      -0.09829000      -0.25386000      -0.38317400 
I       3.04455452       5.96196745      21.03847436       53       0.44256800       0.48169500       0.80699000 
I       3.28819992       5.91452713      29.80694291       53       0.07125200      -0.11818100      -0.16103900 
I       4.87407233      19.97853914       6.41308561       53      -0.40934000       0.24499700       0.42673100 
I       3.75657106      20.33820449      14.50990911       53       0.32696200       0.20077300      -0.04223300 
I       3.62819988      19.88123830      23.18513939       53       0.11865000       0.54705000      -0.28234000 
I       3.57594350      20.30505955      30.66489708       53      -0.06737900      -0.91783000       0.80796100 
I      13.51487746       4.64743651       5.96948897       53      -0.26167500       0.11110600       0.00129800 
I      12.72504732       4.92553626      13.83336037       53       0.02203700      -0.28563900       0.26216400 
I      12.68844828       5.39953345      22.15923697       53       0.04991900       0.33542400      -0.10413000 
I      12.12224962       5.25493541      30.03047413       53       0.75115400       0.13851100       0.23486600 
I      14.13886315      19.08234164       5.86059724       53      -0.08494600       0.42625200       0.24567700 
I      11.71174049      20.43158393      13.80349040       53       0.33753700      -0.14039200       0.31851000 
I      12.53587797      20.41461913      21.32489977       53       0.04074500      -0.31772400       0.25920800 
I      12.32141230      20.90231881      29.39259902       53      -0.02831400       0.09663900      -0.06475800 
I       7.94058491       2.62131545       0.42515985       53      -0.02959300       0.06228800       0.27964200 
I       7.98646562       2.32507293       8.68692534       53       0.10964500      -0.63653800       0.60396300 
I       7.31622538       3.63897204      17.04637912       53       0.11318900      -0.26126100       0.32224100 
I       7.77226768       3.49374899      25.14459478       53       0.04182300      -0.42104900      -0.20007400 
I       8.43335379      16.51587218       2.56299005       53       0.19498300      -0.25722100      -0.02886600 
I       8.74871262      17.46666547       9.95351848       53      -0.30771500       0.13778800      -0.09636300 
I       8.03472371      17.21563386      17.68933413       53       0.25699300       1.24487200      -0.03804300 
I       7.15391973      17.79085815      25.70310933       53       0.00298300      -0.29308000      -0.30450800 
I      17.88974877       2.47054228       2.43894818       53      -0.70994800      -0.63806900      -0.48247900 
I      17.18664202       2.31414306       9.50618639       53      -0.27004600       1.07565300      -0.42671500 
I      16.76308752       2.61901110      17.24340295       53      -0.20934000       0.03173200       0.09351300 
I      14.92400670       2.65215117      24.86087385       53       0.37913300       0.70316300       0.53192300 
I      17.84622012      17.20731404       1.95256472       53      -0.05540500      -0.20189700      -0.11419400 
I      17.23866087      17.60881896       9.36226592       53      -0.11692700      -0.04829400       0.29464900 
I      16.77611438      18.43642710      17.23047344       53      -0.04167000      -0.25149000      -0.29515100 
I      16.86408779      18.39161143      25.91228286       53      -0.36067300       0.27746900      -0.32988500 
I       4.65883952       9.56746549       1.92691696       53      -0.42116000      -0.09260400       0.13318300 
I       4.77041431      10.36979873       9.79771895       53      -0.22687000      -0.34088800      -0.03968500 
I       3.80626121      10.47581756      16.69820343       53       0.01989800       1.10564700       0.37668400 
I       2.70806221      10.56156450      25.26350905       53       0.01510300       0.29379100       0.02623400 
I       4.75207390      24.90200469       2.09888008       53       0.33999600      -0.35315200       0.08943300 
I       3.82125948      25.56815414      10.12860274       53       0.05324900      -1.09068000      -0.10077500 
I       4.19736587      24.98159792      19.10320934       53      -0.04674100      -0.67268100      -0.24832800 
I       3.98195685      25.13373306      26.60188377       53      -0.02444700       0.44141100       0.36353100 
I      12.90338416       9.56747036       1.83986549       53       0.17813300      -0.10061600       0.02167800 
I      12.62107777       9.86547400       9.45839268       53       0.07920800      -0.05243700       0.38303300 
I      13.01033759      10.51051334      17.84299382       53      -0.10270500      -0.35067000       0.06213200 
I      12.42646831      10.85190546      25.83570856       53       0.26154700      -0.33628400      -0.03392200 
I      13.41403296      24.15920890       2.43591855       53      -0.16270300       0.86809200      -0.40736800 
I      13.24914063      24.74057619       9.74171348       53      -0.00608200      -0.09663900      -0.32582300 
I      12.20428837      25.20166237      17.72123781       53      -0.24161400       1.45644500       0.34209500 
I      12.50155310      25.65906470      24.92563334       53      -0.08161800      -0.23285400       0.33012300 
H       0.92364045      10.48322908       2.48986207        1       2.01355700       1.51000500      -0.96004700 
H       0.29206022      10.87376422       9.99202370        1      -0.18454200       1.10335600       2.30463400 
H       0.62621800      11.08279756      17.82905866        1      -0.65272800       0.38845000      -0.00279800 
H      -1.81667494      12.30576080      25.40222110        1       1.67993500      -1.54463900       0.85818300 
H      -0.33955213      23.44842097       2.75910070        1       1.39983400       0.24790200       1.20760900 
H      -0.20567173      24.64955660      10.03090470        1      -0.99831400       0.08406500       0.06345500 
H      -0.74448682      24.40838397      17.93767877        1       1.08724000       0.46778100       0.51678700 
H      -0.77851086      25.14295243      26.02496846        1      -0.90350400       0.41349400       0.47694700 
H       8.35433884       7.55742234       2.01524474        1       0.39130100      -0.99105400      -0.29034300 
H       8.19618433       9.15004231      11.16262249        1       1.17722700      -0.10002300      -0.72265500 
H       8.92970429       9.77429280      17.38072772        1      -1.15831000       0.30512800      -0.35582000 
H       7.78442323      10.08153626      24.55881641        1       0.24811300      -0.65913300      -0.12754000 
H      10.23838428      23.71120702       2.34794903        1      -0.73694500       0.75563300      -0.15688400 
H      10.23592514      25.06728157       9.31333221        1      -0.03396700      -0.74917600       0.54450300 
H       8.17743212      23.86200745      18.99683517        1      -0.05565300      -0.43966000       1.64022500 
H       8.75875463      26.18014395      26.03006588        1       0.04683600      -1.02743200       0.94978300 
H       3.13145510       2.52250175       0.77929553        1       0.22294700       0.25092800      -0.60028600 
H       4.05885242       2.01916516       9.13134948        1      -0.51477500      -1.34228200      -0.50033200 
H       2.18830502       3.68587399      16.66666579        1      -2.20644900      -1.20654200      -1.94912700 
H       2.99266905       3.06804006      25.27210827        1       0.19546100       0.38435100       0.73251200 
H       5.78237962      17.70132515       3.24098547        1      -1.36991700      -0.58684700      -1.14605100 
H       5.17937845      18.35100532       9.58993368        1      -0.77727600      -1.37924200       0.70663800 
H       4.59699382      17.67704423      17.44529153        1       1.51555400      -0.24541200      -0.26872400 
H       4.01603639      18.12946791      26.23952368        1       1.59433400       2.09508200       0.07305800 
H      12.77567985       0.85673822       2.52231191        1       0.66788000       1.81836000      -1.97549600 
H      12.53943818       2.23015823       8.70800819        1      -1.26908500       0.15887000      -0.16842500 
H      11.51481109       3.30617818      17.06699176        1       0.20381000       0.18194900      -1.45062400 
H      11.65833435       3.42146506      23.84444684        1       0.36051400      -2.19614100       0.48241900 
H      14.13104957      17.26743853       2.88500689        1      -1.02271700      -0.31976700      -0.77165200 
H      13.95139456      16.49021955       9.83330649        1      -0.51566800       0.02352100      -0.40683900 
H      12.32207041      18.17325942      16.04202686        1       0.14503800       0.15466400      -3.07287500 
H      10.40185623      17.90215841      25.65194914        1      -1.70236600      -1.14433200       0.18107500 
H       5.76227127      12.41939851       6.18801427        1      -1.03777800      -1.01038900       0.43790700 
H       3.22929819      14.11954142      15.76064241        1      -0.74191600       0.76547600       0.71289000 
H       2.37452846      13.60829974      21.28495761        1       0.23438500      -0.00287100       1.17126700 
H       2.82604578      12.86070735      28.99527932        1       0.22255000       0.05987800      -0.58898100 
H       6.28407677      26.92182309       6.51800143        1      -1.76755400       0.37585400       0.25845200 
H       5.75474682      27.71140011      15.70917166        1       1.00085800       2.41052300       0.84586600 
H       4.30084086      27.57608082      23.17233741        1      -1.12462700      -0.50731500      -0.49472500 
H       4.71908375      28.20242831      30.11559313        1      -2.09994000      -0.52176300      -0.51377000 
H      12.17419546      11.98250757       4.61766195        1       0.87041700      -1.02942800       1.12824400 
H      13.19708186      11.20702148      14.24678816        1      -0.16442500       0.89029600       0.47384900 
H      11.40181397      12.27744848      21.11467190        1       1.71468900       1.27461000      -0.11750300 
H      12.72340984      12.89924956      29.88333224        1       0.43378500      -0.43881500      -0.51513500 
H      14.20732304      25.84508370       6.39319923        1      -1.59101100       1.43920300       0.45882800 
H      13.48135089      28.11276971      14.35154238        1      -0.46743200       0.05542000      -1.02638500 
H      12.87506989      27.16900437      22.57225101        1       0.55920700      -0.31900700      -0.69866200 
H      12.96686832      28.33333846      29.96997969        1       2.11515500      -0.55780600      -0.33376400 
H      -0.59872443       4.46431475       5.63049272        1       0.44403100       0.42078800       0.38683400 
H      -0.31970859       5.35557254      15.13683488        1       0.88765400      -1.10895500      -2.37712500 
H       0.14169302       5.40513516      21.62566144        1      -0.88058200      -0.22050500      -0.87501000 
H      -1.08055467       5.71190743      28.91595285        1      -0.29247900      -1.05261600       2.80780500 
H       1.76097127      21.42042877       7.09375824        1      -1.84374000      -1.47532200      -0.78688900 
H       0.60824851      21.70043762      15.11700788        1      -1.00366300      -1.15251700      -0.32878600 
H      -0.24372231      22.35807838      21.26765986        1       0.27961800      -0.53982700       1.47009300 
H      -0.63935682      21.10515755      29.02510549        1      -0.10109500      -0.00811000       0.30285000 
H       8.61161274       6.13272922       5.33514196        1       0.44754200      -2.37322900      -0.29377700 
H       8.91669593       4.60596688      14.00052299        1       0.18749900       0.77136400       0.90761900 
H       8.25351478       6.70936026      20.82515942        1      -0.77181000      -1.65474800       1.45535400 
H       7.65770998       4.87621021      28.65542832        1      -0.54445600       2.05478200       0.88328700 
H       8.36202781      18.12880298       5.98980565        1      -0.30387000       2.31003000       0.11677500 
H       8.68504934      19.68879398      13.38553567        1       1.24213800       0.35010900      -0.94657400 
H       6.86929828      18.98763625      22.01437120        1      -0.60608700      -0.03974700      -1.06810600 
H       7.90399561      19.75805022      29.72701966        1       0.54913200      -0.54234300      -1.26374800 
H       8.63315608       9.15336206       1.20805162        1      -1.09795900      -0.69439500      -0.01238700 
H       9.13333549       9.34423315       9.60595805        1       1.73550400      -1.10116600      -0.56363000 
H       7.74645832       9.03932131      18.47862785        1      -1.11384200      -0.21827500      -0.94959600 
H       9.44130813       9.86755153      25.55370495        1      -1.40691600      -0.80125400      -0.71030100 