768
Lattice="17.7987335018 -0.0862556377489 -0.377215330748 0.42667029699 31.716983185 0.102423193953 -0.888562294578 0.335849774476 32.9660700025" Properties=species:S:1:pos:R:3:Z:I:1:forces:R:3 energy=-99806.9886477 stress="1283.566672 -4800.665698 804.459386 -4800.665698 -3483.229453 1306.373802 804.459386 1306.373802 345.833603" pbc="T T T"
I       2.20446559       0.86985528       7.33262109       53       0.30567400       0.40370200      -0.34217700 
I       1.96051049       2.21941564      14.11849944       53       0.78061800      -0.70749700       0.34891800 
I       1.05943009       2.57633065      23.55672227       53       0.37957700      -0.36700500      -0.13613100 
I       1.57025790       1.41189080      31.53460590       53      -0.55127100      -0.41532800       0.09846100 
I       2.58404528      17.20573060       6.71455331       53      -0.63962300      -0.26386800      -0.46485100 
I       2.42478937      17.56839216      14.70256406       53      -0.05022000      -0.40907400       0.00207600 
I       2.39344240      17.11876740      23.38584936       53      -0.52349200      -0.29007800      -0.01657200 
I       1.69095394      17.36922167      31.54755613       53       0.40610200       0.36096900       0.25230200 
I      10.25678510       1.32370599       5.59849735       53       0.04924600      -0.22072800       0.03343400 
I      11.32549958       1.16262741      13.52180511       53      -0.27867900      -0.30451500       0.49330500 
I      10.91230174       1.21617623      22.30603908       53      -0.14658900       0.08569900       0.06437600 
I      10.99073522       0.77886170      30.20972950       53      -0.57163600       0.26515300       0.00283100 
I      11.18429740      16.65196031       6.03922376       53       0.34853600       0.07647800      -0.26356000 
I      11.19581712      16.86780932      14.11033119       53       0.28183100       0.22797800      -0.37716100 
I      10.92009624      17.86163225      22.30453486       53      -0.15559400      -0.02032900      -0.07203800 
I      10.44271046      17.41896233      30.51342131       53       0.76541800      -0.05315700       0.30761800 
I       6.76715495       8.70594793       6.12452608       53      -0.27792800      -0.21345100      -0.37045900 
I       6.39421574       9.64782661      14.14868113       53       0.07598300       0.34846800      -0.60924100 
I       6.02549429       9.94520868      22.40220987       53      -0.21440900      -0.52975100       0.12891000 
I       5.63637422       9.42972178      30.08026106       53      -0.29027700      -0.10489500      -0.04784500 
I       6.96169912      25.17733931       6.90978149       53      -0.18588400      -0.34174700      -0.35756400 
I       6.91889999      25.37925405      15.01055247       53      -0.40507300      -0.13826300      -0.17323100 
I       6.15091496      25.03300682      22.96768011       53      -0.10611500       0.06629200       0.28944500 
I       5.84022530      25.97017828      32.16000945       53      -0.43239600       0.07815000      -0.29602000 
I      15.97881286       8.83849650       5.98462434       53      -0.83169800      -0.33851300       0.05457300 
I      15.50294769       9.18293027      14.88157246       53       0.21086900       0.25189300       0.05419000 
I      14.49913588       9.72510607      23.35468772       53      -0.28025500       0.17619600      -0.13357500 
I      14.01049763       9.44007315      31.29867365       53       0.25610200       0.03208800      -0.12450200 
I      15.95794014      24.64850693       5.52701666       53       0.50088900       0.55191800      -0.15516400 
I      15.64618656      24.35520131      13.79799907       53       0.27769300       0.04815000      -0.31130800 
I      15.26125967      25.30892021      21.94185691       53       0.42092800       0.10759300       0.20821600 
I      15.26796466      24.46246688      29.54893325       53      -0.04383100       0.22132900       0.17372100 
I       6.83773352      14.03437777       1.44531030       53       0.21941500       0.23667400       0.11834000 
I       6.66709509      14.10312035      10.19884957       53      -0.14029900       0.23330000      -0.49311900 
I       6.73850206      14.52570703      18.17568362       53      -0.06014200       0.08086600       0.09899800 
I       6.34780403      14.48657169      26.21458700       53       0.14960100       0.10030100      -0.26642600 
I       6.97329769      30.48842504       1.00380567       53      -0.21132200       0.02658000       0.02220800 
I       6.72696799      30.01883991      10.30479422       53       0.51909000       0.26325300      -0.30687600 
I       7.22540774      30.16131183      18.18207118       53      -0.10377800       0.07437200      -0.26082000 
I       6.53724573      30.57139269      26.39674925       53      -0.25884000      -0.20962400       0.00005100 
I      16.18364901      13.92008465       2.32041960       53      -0.26390300      -0.16859600      -0.47732100 
I      15.64782800      14.10465938      10.39223152       53      -0.02146100      -0.17763400       0.16253800 
I      16.02783161      13.92168615      18.61398731       53      -0.16954000       0.71471800      -0.27351100 
I      15.18793582      14.22598415      26.84966098       53      -0.17369600       0.65496700      -0.06324500 
I      16.03821371      29.77226957       2.64679248       53       0.20395500       0.18851400      -0.23334000 
I      15.91171786      30.04632342      10.49588963       53      -0.30622200      -0.34448700       0.32380500 
I      16.05470484      31.37609647      18.38251448       53      -0.33994000      -0.09788300      -0.02369700 
I      15.50453588      30.27097658      26.96486647       53      -0.30621500      -0.10267800       0.18306400 
I       2.19546279       6.12281604       1.63145991       53       0.16845600       0.10458300       0.34163100 
I       1.88576946       6.65151120       9.97417798       53      -0.17765600      -0.16220600       0.14592600 
I       2.65595604       5.99945971      17.91925445       53      -0.34459900      -0.04507900       0.05246000 
I       1.48139010       6.19948624      25.87040002       53      -0.20118500       0.18837500       0.29583200 
I       2.52680605      21.52517243       2.91425295       53       0.22527200       1.02935100      -0.31468400 
I       2.24304900      22.58640881      11.03396544       53      -0.50328800      -0.23106600       0.42931100 
I       1.61520327      23.42544344      18.60241229       53      -0.10850000      -0.22052800       0.01106300 
I       1.30801868      23.82676726      27.66919091       53      -0.03314500      -0.76392200       0.35864900 
I      10.60306407       6.45971949       2.35306908       53       0.21253800      -0.50346000       0.36417400 
I      11.30226045       6.24150714      10.65917283       53      -0.14414000       0.40574600      -0.06485200 
I      10.85821021       6.60273923      18.49959896       53      -0.23964100       0.33378900       0.08483100 
I       9.72187850       6.52095325      26.87995736       53       0.63570700      -0.12305200       0.07825600 
I      11.64383527      22.01542651       1.44621345       53       0.08221900       0.24382600      -0.04351400 
I      11.34785502      21.93298928       9.31113820       53       0.10676300      -0.00734600      -0.17074200 
I      10.92582846      22.50328244      18.08840913       53      -0.17629400       0.06027600      -0.15151200 
I      10.52495007      22.45915727      25.63960608       53      -0.13251100       0.19341800       0.34654200 
I       6.19318367       1.04855342       5.50340787       53      -0.21203600      -0.18543100       0.10973500 
I       6.38082009       1.08088443      14.57156477       53       0.17968600      -0.04771800      -0.33159100 
I       6.45018729       0.72064765      21.44118080       53       0.03668100       0.80450200       0.61458700 
I       6.63586485       2.24286469      29.71881393       53      -0.19893600      -0.43966300       0.48062200 
I       6.68551744      16.48301862       5.93460926       53      -0.17290600       0.10958800      -0.23596500 
I       6.53003284      18.03766293      13.31215525       53       0.16898100      -0.41326400       0.36377500 
I       6.28004755      17.01549430      21.91976668       53       0.21757500      -0.07203000      -0.00519700 
I       6.15043472      17.35250117      30.52716410       53      -0.08894100       0.14393500       0.01410300 
I      15.50911510       0.84809067       5.84784368       53      -0.43655500       0.23933600       0.00644200 
I      15.26504941       1.51608138      13.87280358       53       0.21536700       0.09024700       0.29785800 
I      15.03040122       1.26989708      23.27624912       53      -0.86031800       0.17871400      -0.05745700 
I      14.12527714       1.27097942      31.53969097       53       0.98005900       0.15101400       0.33090700 
I      15.91923794      16.77010563       6.00442599       53      -0.30078600      -0.07031800       0.05436500 
I      15.60434793      16.48745960      14.99390365       53       0.22822100       0.09391000      -0.37687100 
I      15.64550972      17.56934343      22.86163921       53       0.13715100       0.12337200      -0.20782900 
I      14.98171731      17.23704993      30.70692000       53       0.04962400      -0.16103900       0.07523100 
I       2.05250346       9.13815692       5.67782988       53      -0.15277700      -0.05842100      -0.07130200 
I       1.57303390       8.92133513      13.81507489       53      -0.12147800       0.23188000      -0.33828100 
I       1.49777064       8.49365007      22.13533614       53       0.02887100       0.18536200      -0.21910900 
I       1.17819799       9.03141664      30.78829230       53      -0.40123400       0.22297500       0.03716600 
I       2.07883193      24.69254404       6.72315266       53       0.26130800       0.33979100       0.02054600 
I       2.81939079      26.13530976      14.45687434       53      -0.24950400      -0.23168700       0.00463500 
I       1.50325915      25.58988181      23.15782835       53       0.31326400      -0.08800800       0.04574100 
I       1.09241235      25.77690487      31.72970813       53       0.50060500      -0.23966800      -0.51274900 
I      11.20915953       8.80107428       6.42121389       53      -0.19672200       0.21483000       0.09433300 
I      10.93873158       9.20054368      14.55567881       53       0.40959800      -0.17715200       0.16209000 
I       9.87338598       8.51314146      22.74994186       53      -0.07106500       0.12202300      -0.11958300 
I       9.66775830       9.34912054      31.46390753       53      -0.26800800       0.02949700      -0.31990100 
I      11.47288658      24.60045379       5.60275094       53      -0.02773200       0.06924500      -0.10154000 
I      11.10299780      24.77716234      13.87413987       53       0.00230800       0.13344900      -0.19271400 
I      10.82904430      25.25743266      21.46193270       53      -0.88329100       0.51567600       0.40623500 
I      10.78114783      25.32578510      30.23507188       53      -0.18158400      -0.41628800      -0.30362200 
I       6.87535439       6.55092707       1.80391897       53      -0.30401200      -0.03617400       0.10253200 
I       6.46775360       6.49270482       9.78992477       53      -0.26501500      -0.02190800      -0.04594500 
I       6.40834764       7.39604309      17.78025995       53       0.86078400      -0.77427400       0.38185900 
I       5.70669269       6.58091216      26.66099648       53       0.08492300       0.05018000       0.06316100 
I       6.72677548      22.42581047       2.65255337       53       0.40967800       0.03922500      -0.44522500 
I       7.15654024      22.29896852      10.47926129       53      -0.27089100       0.35163500       0.18011400 
I       6.35247029      23.06756384      19.05536395       53      -0.07120700      -0.04614800       0.10121900 
I       5.95231278      23.40773172      27.59975613       53       0.23695800      -0.03261500       0.06401300 
I      15.59137108       6.66560828       1.91127261       53      -0.15044900      -0.01933300       0.22689800 
I      15.55192343       6.17365030      10.56337681       53       0.18689700      -0.20222400       0.13425700 
I      15.66243706       7.35452496      19.61689290       53      -0.33747600      -0.03501400      -0.27407200 
I      14.65380949       7.24610844      27.24356098       53      -0.22245200      -0.00256800       0.02195400 
I      16.28068507      22.95751305       1.04105996       53       0.18022700      -0.25473300       0.67836100 
I      16.04213144      22.71808085       9.70068322       53      -0.20007200      -0.18273600       0.06526600 
I      14.96950332      21.26601333      17.99998061       53       0.25748600       0.17996800       0.08273500 
I      14.93977321      22.43173519      25.58050116       53       0.00750100       0.18254100       0.54508800 
I       2.85248672      14.43383898       2.19518427       53      -0.26892400       0.18301800      -0.15029400 
I       2.58886923      14.85152082      10.58952097       53      -0.51288200      -0.11262400       0.02237800 
I       2.51298852      15.00239138      18.97638469       53       0.63652700      -0.19325200       0.31582200 
I       2.23258192      15.31818045      27.37696968       53       0.01154200      -0.24951100       0.14345100 
I       2.78835203      30.32952343       2.57621903       53      -0.03728200      -0.03238700      -0.10157200 
I       2.79426652      30.06698521      11.27794819       53      -0.73786600       0.41573600      -0.35134500 
I       2.44611163      32.59526886      19.38111425       53       0.23637400      -0.30121800      -0.12374000 
I       1.93589616      30.90556826      27.83527367       53       0.44616800      -0.23727400       0.42538900 
I      11.27368333      14.12496380       1.77301230       53       0.38317600       0.08443700       0.00077700 
I      11.02227778      14.85231337      10.43789266       53       0.99931300      -0.76398200      -0.04619800 
I      11.25058448      14.47941000      18.04925229       53      -0.01751100       0.12673300      -0.06961800 
I      10.89388553      15.30027827      26.35070208       53      -0.03842200       0.04090500       0.14271200 
I      11.38599915      30.51807631       1.77074215       53       0.24246900       0.18907900      -0.08271500 
I      11.61623605      30.56012793       9.88205189       53      -0.11272000      -0.12122900      -0.45907100 
I      11.68709006      29.95493562      18.18605138       53       0.38610900       0.16075400      -0.17645400 
I      11.27810690      30.27882843      26.16182459       53      -0.18745100       0.04498100       0.06226300 
I       0.58456432      13.04831761       6.15558941       53      -0.06268000      -0.04469600       0.32654200 
I       0.76149712      13.20276390      14.44044670       53       0.00769400      -0.39236100      -0.29088600 
I       0.23454067      13.16499045      23.07319469       53       0.08473200       0.12984500       0.20414200 
I       0.18230868      13.39443684      31.27952121       53      -0.37401300      -0.91493400       0.53864000 
I       0.56669286      28.87259919       7.01007891       53      -0.13734100      -0.15867400      -0.02458900 
I       0.15252327      29.75043636      15.46267983       53       0.30819100      -0.25191300       0.23816700 
I       0.27899863      30.14564499      22.71185508       53      -0.00015800      -0.00611900       0.22153400 
I      -0.96654728      29.37991885      31.89960725       53       0.02307100      -0.66077100       0.23052000 
I       8.82812772      12.73769143       6.30397274       53       0.31124800      -0.17452400       0.00040500 
I       8.74896004      13.05821843      14.36959985       53       0.04190800       0.30551500      -0.27056000 
I       9.59796308      13.58411097      22.43461564       53      -0.10057100      -0.00100900       0.10345500 
I       8.28097129      13.52396877      30.33832552       53       0.05603600      -0.07872500       0.03600500 
I       8.92023333      28.89929936       6.01794554       53       0.17626700      -0.36336100      -0.05640700 
I       9.17488079      28.65233172      13.73181950       53       0.21493300       0.44340100       0.22257900 
I       9.07940118      28.95021452      22.52710831       53       0.18032900      -0.21299200      -0.30371100 
I       8.80191496      28.87014574      30.87426327       53      -0.04565800       0.52941300      -0.26225000 
I       4.16306329       4.74281902       5.77681047       53      -0.12170900       0.18153100       0.08000700 
I       4.83260942       5.62118251      13.55258787       53      -0.20310700      -0.02934600       0.11964800 
I       4.38115891       5.25222657      22.28041305       53       0.06580700       0.39165300      -0.05258500 
I       3.50280155       5.20146808      31.12342426       53      -0.05169900       0.09231900      -0.08060600 
I       4.85380163      21.06930653       6.40575186       53       0.02764900       0.11959100      -0.01311600 
I       4.26515165      21.58191093      15.17311684       53      -0.39769200       0.18453500       0.09441900 
I       3.24904086      21.55831341      23.45659278       53       0.34444500       0.15939200       0.04914700 
I       4.66213483      22.22920094      31.21604698       53      -0.25336400      -0.67844500      -0.30381900 
I      13.14502804       5.04524315       6.39448300       53      -0.06062500      -0.31653700      -0.09444200 
I      13.23388765       5.15616841      14.42762754       53      -0.09846700      -0.06084200       0.54116700 
I      13.07962567       5.47950520      23.32803056       53      -0.17685300       0.61701700      -0.65322400 
I      12.28604841       5.40151612      30.82009289       53      -0.25955700      -0.18522700       0.44475300 
I      14.20990875      20.56941274       5.26276431       53       0.08557900       0.13618200      -0.10020800 
I      12.68324663      20.83227043      13.83841540       53       0.18672900       0.18160000      -0.36095500 
I      12.99775777      21.47408627      22.21565272       53       0.23383000       0.06947200      -0.40180800 
I      13.21875431      21.05913026      31.19715872       53      -0.54931900       0.18470300      -0.19735400 
I       8.72473687       2.79562841       0.98150552       53       0.19983700       0.23989600       0.34125000 
I       8.24057954       2.64903191      10.31869469       53       0.19344500      -0.28411900      -0.29090900 
I       8.75133976       2.67496923      17.65646536       53       0.39628100      -0.37101800      -0.02484100 
I       8.68820550       2.28334143      26.54113396       53       0.26358900       0.93086000      -0.92224300 
I       9.11815457      18.12439164       2.10314317       53       0.02367400       0.21914400      -0.27246700 
I       8.88744972      18.16148108       9.80894103       53      -0.18149200       0.42224200      -0.03604800 
I       9.01876542      18.54074129      18.06883788       53       0.10761300       0.21521300       0.30855700 
I       8.20614528      19.00624075      26.55702401       53      -0.10647700       0.07725700      -0.33047800 
I      17.77432396       2.24908227       2.59197495       53      -0.04836700       0.61313700      -0.05699000 
I      17.28506314       2.84775493       9.90891385       53       0.11185100      -0.50547000      -0.21987900 
I      16.81498036       3.68297422      18.09214459       53      -0.10092100       0.06884800      -0.05625400 
I      16.52136959       2.50042741      27.42304245       53       0.15353000       0.27306900       0.02001500 
I      18.06687594      18.27779553       1.94702370       53       0.23516800      -0.39426900      -0.24503000 
I      17.57694646      18.39996610       9.88762130       53       0.04423900      -0.68575900       0.28400600 
I      18.14506777      18.61731011      18.90836606       53       0.16817800      -0.14039200      -0.05410200 
I      17.28086074      18.61799925      26.92301555       53       0.08996400      -0.02618500       0.08891800 
I       4.42710061      10.48857537       1.97871781       53       0.28092900      -0.46577200       0.08325000 
I       4.65370956      10.74394678       9.36459998       53      -0.35155100      -0.49555100       0.17754500 
I       4.13745161      10.79017725      17.73333421       53      -0.28585700       0.14712300       0.18487500 
I       2.74020981      10.22538488      26.70643951       53       0.22995000       0.36673600      -0.22009800 
I       3.96551581      26.54836220       2.11449394       53       0.55999500      -0.44056900       0.41526600 
I       4.72222174      26.37378250      10.29645291       53      -0.01635500       0.52608300       0.55300900 
I       3.88035582      27.00952718      19.03725186       53       0.15879400       0.22097100       0.35238700 
I       3.22557645      27.13410921      27.11955851       53       0.41633300       0.50838800       0.25378300 
I      12.83669967      10.36123270       2.28517742       53       0.43397500      -0.11852100       0.01088300 
I      14.30328614      10.06264131      10.24071994       53      -0.10229500       0.50992100       0.21193400 
I      12.87414442      10.61001994      19.17238085       53       0.06444800      -0.19629400      -0.29695600 
I      12.02155235      10.76078094      27.38493621       53      -0.03776000       0.19695200      -0.33104400 
I      13.10525886      26.40194286       1.44039317       53       0.55941500      -0.00691200       0.28153600 
I      13.45218703      26.04432950       9.51780112       53      -0.02833700       0.17820700      -0.17436700 
I      13.89190585      26.06271908      17.24316716       53       0.00543700       0.46983800       0.64651900 
I      12.57009524      26.36823562      26.42020137       53      -0.04704800      -0.09900800       0.20317300 
H       1.47206270      11.18611188       1.51454644        1       0.62169700       2.46322800      -0.55910500 
H       0.36812652      10.92267768       8.23142212        1      -0.88276800       0.35756800       1.83652500 
H       1.15356727      10.57893101      19.91086309        1      -0.66795100      -0.03150400      -1.45046500 
H      -0.73238856      12.19949172      27.10370736        1      -1.52856100      -1.21646800       0.01033500 
H      -0.68803504      26.32553582       1.66589725        1       0.15730100       0.44315300       0.22591600 
H       0.36389136      27.40579460      12.33749501        1       1.25171300      -0.44203000       1.42817900 
H      -0.66829278      27.31498125      18.40511875        1       0.41614700       0.59926800       0.61041500 
H      -0.33172110      26.25383395      26.50242357        1       2.53745600      -1.78546500      -0.71958300 
H       8.45326446      10.88424070       1.40486223        1       1.06654700       0.26900600       2.11628500 
H      11.43833456      10.85058978       9.97760216        1      -1.43451100       0.21255500       0.33546800 
H       7.71279366      11.83295441      17.81184449        1       1.09817500      -0.10089800       0.49438000 
H       7.10745185      11.14714038      27.42626491        1      -0.94522200       0.58902000       0.41944300 
H       9.47874668      27.84784092       1.84973677        1      -0.13681400      -2.96471700      -0.84431600 
H       9.78994628      27.53662187      10.49741023        1      -1.03502000      -0.21622900       0.75205600 
H       9.93226255      27.95422281      17.98848444        1      -1.86051900      -2.09451300      -0.85115300 
H       6.93865147      27.11275726      27.04108202        1       0.39994900      -0.74924600      -1.23835800 
H       3.96941511       1.24473185       1.57770323        1       0.63278000      -0.13958600      -0.58141300 
H       3.62241730       1.42150696      11.08174006        1      -0.51184700       0.57325400       0.03670400 
H       6.29678341       3.34294355      19.12544896        1      -2.77132800      -0.59159900       0.61501300 
H       2.14769841       2.91443214      25.84458865        1       0.79202900       0.37278100       0.91018500 
H       4.47680952      17.72237766       1.93824413        1       0.71147100      -5.53640200      -1.55371100 
H       3.99129235      19.63471623       9.81629523        1       1.02778800      -0.79530300       0.88449300 
H       5.06230258      18.14216582      19.54606449        1      -1.53932700      -1.18188300       1.69015400 
H       4.69151680      19.18574783      26.94917608        1       3.12475700      -1.44653800       0.18401200 
H      13.92009489       2.48675937       2.74536655        1      -0.36295700      -0.58098900       0.32098700 
H      11.77940457       1.99722310       9.65179042        1       0.19856800       1.53565600       1.02232000 
H      13.64951436       3.51142855      19.05883830        1       1.52174300       0.69245100       1.49615000 
H      11.69463677       2.82032159      27.65342885        1       2.60962000       2.40574400      -0.37332300 
H      14.81933520      18.43898880       1.48921430        1      -0.59313200       0.12312300      -0.54834300 
H      13.97420280      17.71200479      10.30730296        1      -0.09090000       0.29290900       0.64297800 
H      14.33884063      16.87863172      19.96030986        1      -0.78840400       0.08244700      -0.16139800 
H      13.42528923      19.74820143      26.19710466        1      -0.80153600       0.25351700      -0.21151100 
H       3.69808913      11.61451474       5.15890550        1      -3.39076300      -1.86143200      -1.53284400 
H       4.45859401      13.18154097      12.45064845        1      -0.58682600       0.91724700       0.33525100 
H       5.91403144      13.42415262      21.56854190        1      -2.14631800       0.14790100       0.98055300 
H       4.53266229      11.89530738      31.57879558        1      -0.25795500       0.01093700      -0.58149800 
H       4.98335813      27.84872974       6.41560251        1       0.24035400      -0.10032200       0.34629400 
H       3.94383926      30.01425557      14.97890342        1      -0.45205000      -0.12378500      -0.89598900 
H       5.16180745      29.97018364      23.69326639        1      -0.38826600       0.15158600      -1.47627200 
H       4.40623300      30.13285553      29.14799035        1       0.82932500       0.11357800       0.69359000 
H      13.10672519      11.34085410       7.02586964        1      -0.38392400      -0.59378400       0.00775800 
H      14.87978153      13.47342224      13.95123092        1       0.77293700      -0.26813400       0.17631900 
H      13.01956948      14.06212445      22.12646749        1       0.00210700      -1.29788000      -1.43605300 
H      12.46753688      13.41945666      29.54095238        1       0.80506600      -0.17262200       0.17855000 
H      12.53564971      28.91101672       6.23605344        1       1.25983700      -0.53683400      -0.12165500 
H      14.36902028      30.34545649      14.84236442        1       0.15584400      -1.82568400       0.43639500 
H      14.47287397      28.82697287      21.35659015        1       0.16951400       0.04293400      -0.52516100 
H      12.86770668      29.29118724      29.31355190        1      -0.36388700       0.07450700       1.14520700 
H       0.87740812       5.11846664       5.69927911        1       1.86141200      -2.69095100      -0.57572200 
H      -1.28065190       6.38179389      14.09338234        1       0.23751500      -1.05861400       0.58453300 
H      -1.81572439       5.16264916      22.31058758        1      -0.04489500      -0.05390900       1.99903500 
H      -1.11131700       6.36556285      30.75392869        1       1.01653900       1.20163100      -1.06146600 
H      -0.36860984      20.20017827       7.22034827        1       2.26047700       1.34316500       0.53318700 
H       0.76182889      21.85676553      13.57820878        1      -1.31273500      -3.24755700       0.35409400 
H      -0.15533920      20.63907996      22.80288859        1      -0.40707900       1.38289800       1.04286200 
H       0.28279860      20.24908746      31.68873271        1      -0.51678300       0.30207700       0.00305000 
H       7.24016733       5.55739700       5.12278065        1       1.02368800      -0.77043100      -0.50333800 
H       8.29031917       5.46150165      13.37051471        1      -0.53404700      -1.56588500      -1.52162800 
H       9.27381632       3.54151501      21.09150837        1       0.84363600      -1.49098400       0.00242100 
H       7.28539635       5.29395257      29.64576963        1       0.93506400       1.36947700       0.54916800 
H       9.47146109      19.74444037       5.25239860        1      -1.02203700      -0.95255200       0.88366600 
H       6.95305062      20.79261287      14.37521328        1       2.20115300       0.91227200       0.20469900 
H       8.49545125      22.08479781      20.54013521        1       0.28126900      -1.11359600       1.54387800 
H      10.23559187      21.51365167      29.89225395        1      -0.99725200      -1.82166800       0.89890400 
H       9.43777535      11.74588164       3.08925249        1      -1.93592100      -0.58778200      -1.92679900 
H       9.84238818      10.00185810       9.42315502        1       0.35310000      -0.34548300      -0.53772600 
H       7.27826333      10.29021894      18.51660617        1       1.23128100      -0.53329200       0.30597200 
H       8.55249183      11.87925656      26.68753077        1       0.61259200      -0.79572300      -0.26202800 