768
Lattice="17.8884022315 -0.0271264251896 -0.248725217149 0.538359648299 31.6528425121 0.242287407416 -0.648985857403 0.473289834344 33.126305106" Properties=species:S:1:pos:R:3:Z:I:1:forces:R:3 energy=-99805.2732689 stress="-1375.081388 1061.854792 -2714.047467 1061.854792 52.632723 -1909.078377 -2714.047467 -1909.078377 -2431.258067" pbc="T T T"
I       2.40588424       1.45829225       7.38179057       53      -0.32563800      -0.59299400      -0.47597900 
I       2.35917532       2.21167062      14.08483188       53      -0.36887000      -0.08183700       0.15113100 
I       1.47533672       2.44107931      23.77807963       53       0.23524100      -0.19083200       0.00388900 
I       1.55931380       1.51403677      31.99947501       53       0.08679400       0.08362600      -0.27566300 
I       2.65406412      17.13152817       6.94040938       53      -0.02926500       0.23888500       0.00946200 
I       2.41477862      17.48196356      14.84201108       53       0.29471500       0.08958100       0.00494400 
I       2.59889482      17.42190792      23.48708238       53       0.42643500       0.24824200       0.53835300 
I       1.94188361      17.58710655      31.87250326       53       0.31631800      -0.12077200      -0.23027500 
I      10.12691697       1.45534807       5.81882953       53       0.51429000      -0.15848500      -0.38356500 
I      11.36209297       1.20267461      13.57249356       53       0.45378500       0.04589700       0.46442800 
I      10.97713360       1.56507742      22.37949355       53      -0.42277900       0.00642500       0.14400700 
I      11.02988241       0.81130526      30.59824165       53       0.21369200       0.42076600      -0.00832600 
I      11.48531234      16.63390042       6.23293172       53       0.06045000       0.17307200      -0.16059000 
I      11.57716943      17.00099371      14.33236953       53      -0.41694300       0.18188800      -0.04529100 
I      11.05066792      17.85120726      22.60112843       53       0.58532800      -0.51492700      -0.17792000 
I      10.91626254      17.41127858      31.16833161       53       0.31228100       0.11174300      -0.49403800 
I       6.87846209       8.83555522       6.22031897       53      -0.16037900      -0.19899900      -0.22228100 
I       6.78645347       9.66849131      14.41101595       53      -0.47531400      -0.27190900      -0.22684900 
I       6.22716089       9.64399877      23.02666610       53      -0.12252300       0.22024500      -0.19518600 
I       5.94818363       9.44629461      30.28802376       53      -0.15431000       0.10692000       0.38588700 
I       6.93483442      25.05848628       7.05666932       53       0.64476000       0.54397800      -0.50856600 
I       7.19580642      25.57390073      15.22210370       53       0.12318800      -0.22850300       0.01836000 
I       6.21269051      25.14679406      23.58035588       53       0.90707200       0.50458600      -0.61785900 
I       6.13743978      26.10869149      32.61131641       53      -0.30422700       0.07848600      -0.59018000 
I      16.06783294       8.66172920       6.13111227       53      -0.32653400       0.17474100       0.18201900 
I      15.86233846       9.15238411      14.80923134       53      -0.58987000       0.06508100       0.85137100 
I      14.67677328       9.78279877      23.76064033       53       0.49055700       0.37626800      -0.48978900 
I      14.39357253       9.58434620      31.57668255       53      -0.02718900       0.15931900      -0.31019600 
I      16.13149664      24.75539069       5.79763167       53      -0.05432800       0.09325100      -0.13616300 
I      15.80222921      24.46262137      14.20455864       53      -0.22319600       0.71678400      -0.45229100 
I      15.64758674      25.69529029      22.47509993       53       0.05200500      -0.03248700      -0.26656800 
I      15.49616368      25.06871255      29.86867132       53       0.05486200       0.03068000       0.52118000 
I       7.06130413      14.07762607       1.55438107       53      -0.15728400       0.19968600       0.33194100 
I       6.76536384      14.55658262      10.22176255       53      -0.22868100      -0.20265000       0.21729000 
I       6.65913740      14.55524969      18.30747117       53       0.38766500       0.40655800      -0.12861800 
I       6.58626697      14.57764235      26.39775378       53       0.10518700       0.07050400       0.04897200 
I       7.01361795      30.46943288       1.11238652       53       0.16665100       0.27118500       0.55165400 
I       7.08344525      30.16350342      10.49312474       53      -0.21791900      -0.21097500      -0.06570900 
I       7.63004055      30.19320807      18.29383580       53      -0.71126000      -0.21985000       0.25461200 
I       6.74278460      30.49369863      26.84892209       53       0.02036800       0.09376400      -0.18117800 
I      16.24908537      14.03452830       2.51372193       53       0.08033300      -0.11822500      -0.25426300 
I      15.89733046      14.44831092      10.94659498       53      -0.51247500      -0.63431400      -0.74396900 
I      16.49241087      14.38081443      18.99876514       53      -0.14104800      -0.01189500       0.03345400 
I      15.85203178      14.35532606      27.27256605       53       0.06233500       0.14691200      -0.32836500 
I      16.33077082      29.93673995       2.80970655       53      -0.19101500      -0.17974800       0.56926600 
I      15.91215752      29.72251810      10.86718468       53       0.24718700       0.41618800       0.02873700 
I      16.12382590      31.37259316      19.01933830       53       0.19210800       0.05903300      -0.18341400 
I      15.62540026      30.53288938      27.46768787       53       0.27227100      -0.13838500       0.13022800 
I       2.34231847       6.10201275       1.72592164       53       0.10000600       0.00332000       0.34955300 
I       2.16266079       6.42121369      10.29960799       53       0.46815100       0.27097900      -0.38407100 
I       2.54383171       6.06659810      18.13455748       53       0.17153800       0.25507300      -0.07719800 
I       1.77786224       6.16768666      26.39595800       53      -0.47047700       0.17084200       0.14624300 
I       2.83637423      21.91237763       3.10471905       53      -0.37701900       0.00945800      -0.14015200 
I       2.42733157      23.00617542      11.23844992       53       0.45779200       0.07584200      -0.40299500 
I       1.94779464      23.32542687      18.56915448       53      -0.15643100      -0.32460900       0.25498000 
I       1.80532576      23.57626847      28.10398778       53      -0.07613000       0.07876700       0.13715500 
I      10.57910068       6.37877569       2.47979173       53       0.27676500       0.33895000       0.42233100 
I      11.43305114       6.43816126      10.95518526       53       0.05926300       0.02595000      -0.45248700 
I      10.76103658       6.60350215      19.01596012       53       0.52415500       0.19477800      -0.19044700 
I      10.21518970       6.58883281      27.09301455       53      -0.10554000       0.18035200       0.11534700 
I      11.76764097      22.02637067       1.40289616       53       0.04364500       0.31869600       0.02481900 
I      11.51904461      21.64089380       9.62721407       53       0.05402100       0.41743900      -0.11322200 
I      11.18255385      22.68918983      18.11945414       53      -0.45797800      -0.69172900       0.62702600 
I      10.74095928      22.57674619      26.23680132       53       0.01110400      -0.04334000      -0.29896800 
I       6.19539656       0.78169339       5.68987747       53      -0.55859800       0.07354500      -0.19497500 
I       6.63354080       0.85566996      14.73495479       53       0.02670800       0.66276400      -0.57754100 
I       6.66652156       0.86680443      21.78446366       53      -0.33182300       0.03372600       0.26287300 
I       6.78480613       2.19228503      30.10313749       53      -0.55814300       0.01760200      -0.11838300 
I       6.76293923      16.68363289       5.71713173       53       0.11847000      -0.04871000       0.24382400 
I       6.83942907      18.11543064      13.72145592       53      -0.33077600      -0.05121100       0.48904100 
I       6.92262990      17.10764384      22.19560621       53      -0.36523700       0.35678600      -0.61158700 
I       6.51081522      17.52814364      30.89236657       53       0.10893400      -0.02710100      -0.22734500 
I      15.38089132       1.05211851       5.98307460       53       0.16615100      -0.28058300       0.38423500 
I      15.58615385       1.66681337      13.80804832       53      -0.28370000       0.32642900       0.49929200 
I      14.76304920       1.40611455      23.39632834       53       0.34807700       0.14420300       0.15243000 
I      14.58495021       1.48037048      31.91415677       53       0.01705600       0.06026400      -0.25753500 
I      16.04622684      16.78672856       5.84769607       53      -0.21047300      -0.08946200       0.34971200 
I      16.01983028      16.64990578      14.80069364       53      -0.40278200       0.20732100       0.34329300 
I      15.95750053      17.69895847      23.06521977       53       0.02501600      -0.54619700       0.30704200 
I      15.66019433      17.42729836      30.70376813       53      -0.73470900      -0.20138900       0.42076400 
I       2.26513691       9.39158096       5.78251080       53      -0.13001700      -0.05857500       0.20563500 
I       1.44568466       9.33338295      13.85836323       53       0.86218500      -0.35247500      -0.23721800 
I       1.76967297       8.71129363      22.31884722       53      -0.36119400       0.49609100      -0.09775200 
I       1.17562447       9.01937865      30.99806211       53      -0.10879600      -0.07598100       0.15844500 
I       2.62885306      24.71707206       6.85482002       53      -1.04159300       0.43307900       0.20385000 
I       3.06885390      25.92752668      14.52609760       53      -0.43893400       0.19982100       0.30345800 
I       2.09313142      25.51805002      23.37253782       53      -0.70383800       0.47783700      -0.14452400 
I       1.53560988      26.03355622      31.73668248       53      -0.57455200       0.19178000       0.49544400 
I      11.35343569       8.92561136       6.44898132       53       0.04415400       0.03484900       0.13392500 
I      10.94885466       8.89989105      14.73188897       53       0.41924600      -0.07588000       0.20805700 
I      10.49849147       8.88609383      22.96431780       53      -0.48958200       0.29166100      -0.13356100 
I       9.72904898       9.74723154      31.77654639       53       0.15573500      -0.29028700       0.06025300 
I      11.71944347      24.75282484       5.95779138       53      -0.13572500      -0.25456100      -0.52548000 
I      11.40627728      25.36922477      14.04674726       53       0.28744800      -0.46630100      -0.03425400 
I      10.84864853      25.45555224      22.05343731       53       0.51617200      -0.57604000      -0.26752300 
I      10.96994222      25.30322407      30.27175244       53      -0.02985500      -0.03990900       0.59145500 
I       6.85804872       6.64495361       2.12692245       53      -0.26793900       0.10989800      -0.34298400 
I       6.41732420       6.47429134      10.00416046       53       0.18239600      -0.02567900       0.10904900 
I       6.78258975       7.54082354      18.23755522       53      -0.27938400      -0.20686800      -0.24254200 
I       6.05857996       6.73595197      26.79668975       53       0.16117800      -0.08386100       0.06742900 
I       6.72235886      22.63169694       2.55231168       53       0.56490200      -0.07555400      -0.18325900 
I       7.26926343      22.49965329      10.69925938       53       0.00441700       0.09076900      -0.08359700 
I       6.75015226      23.03414922      19.37193028       53      -0.22986800       0.04465400      -0.12038700 
I       6.41038332      23.47729217      27.84801449       53       0.04211400       0.22486200      -0.09080100 
I      15.87515532       6.87924865       1.89229753       53      -0.43900500      -0.72942300       0.25202500 
I      15.85463371       6.25392651      10.89808926       53       0.04360200      -0.08870400      -0.10161700 
I      15.81965717       7.21383538      19.93621642       53       0.48372600      -0.11657800      -0.53748900 
I      15.02016161       7.51854841      27.64544461       53       0.85746900      -0.53668000      -0.33777100 
I      16.57560242      23.06306009       1.20558992       53      -0.58441400      -0.03590100       0.22190900 
I      16.35366241      22.58363140      10.13257646       53      -0.52972300      -0.12454100       0.04792400 
I      15.30894660      21.44949653      18.08426216       53       0.07149300       0.30700800       0.06544400 
I      15.39680905      22.43865440      26.14851622       53      -0.23332400       0.36426100      -0.02425700 
I       3.05012704      14.67451257       2.44606256       53      -0.50363700      -0.59506100      -0.06145100 
I       2.53252508      14.79369503      10.60692398       53       0.17957800      -0.17144900      -0.01381200 
I       3.04104401      15.04202336      19.52689336       53      -0.11330300      -0.11594300      -0.40229600 
I       2.59807115      15.75491312      27.48834349       53       0.69690300      -0.23696600      -0.21098100 
I       2.88339962      30.45293890       2.81694019       53       0.56553600      -0.28457600      -0.03212700 
I       2.93849985      30.01128247      11.57694573       53      -0.34227200       0.06107400      -0.17194300 
I       2.68429038      32.46101803      19.72337593       53       0.05576200      -0.33941800      -0.24552400 
I       2.34625228      31.07212012      28.03371412       53      -0.08125700      -0.04070600       0.12631300 
I      11.74567510      14.37568789       2.08997797       53       0.02923000       0.09858300      -0.13308300 
I      11.25996735      14.35846920      10.71617191       53      -0.28384100       0.18191300      -0.36200600 
I      11.27408930      14.53431676      17.98984335       53       0.62823500      -0.38114300      -0.16564800 
I      11.17685621      15.27624830      26.43482814       53       0.42031400      -0.18973100       0.39177000 
I      11.93252415      30.65023380       2.09298503       53      -0.43210900      -0.00647600      -0.09499400 
I      11.59430049      30.43350795       9.92557588       53      -0.16531700      -0.15576800       0.11936400 
I      11.93918669      29.75929557      18.31117717       53      -0.09909000       0.30049100       0.33556800 
I      11.43645097      30.17198855      26.78466666       53       0.02938100       0.63299500      -0.06094900 
I       0.73457625      13.00419320       6.44088999       53      -0.08944600      -0.19784700       0.25065300 
I       0.55948535      13.06365505      14.57895465       53       0.31846500       0.44525800       0.24294500 
I       0.30693869      13.12511165      23.19202349       53       0.10441800       0.25145600       0.37179400 
I       0.36388212      13.00252215      31.57060864       53      -0.29821500       0.71233200      -0.18028400 
I       0.75852862      28.57851054       7.40443681       53       0.17846600       0.76922900      -1.29416100 
I       0.37847414      29.71826265      15.78262405       53       0.16911100       0.20575600      -0.49161100 
I       0.20734180      29.91365765      22.93560383       53       0.13027000       0.28559400      -0.03035700 
I      -0.47606082      29.52789728      32.21014757       53       0.20124400      -0.46753500      -0.18644100 
I       8.95638193      12.77440411       6.76932240       53       0.06471300       0.13990200      -0.61747500 
I       8.90556086      12.98781260      14.28229275       53       0.21641200       0.25315800       0.19300700 
I       9.70672746      13.60463725      22.67537818       53      -0.53348800       0.21994500      -0.14212600 
I       8.54650426      13.59387904      30.40747322       53       0.01293000      -0.09419100      -0.07315700 
I       9.00045283      28.61157893       6.16487753       53       0.13940900       0.09935300       0.01667600 
I       9.63819804      28.78946040      14.16261443       53      -0.28779800       0.46929300       0.06009600 
I       9.66599968      29.03140041      22.59746470       53      -0.52313000       0.53869900       0.10262800 
I       9.15428092      28.84524204      31.44384203       53       0.02798700       0.34286200      -0.17139400 
I       4.25029868       4.78289678       5.75571219       53       0.34899100       0.50367900       0.72109400 
I       4.97646300       5.52256967      13.76294551       53      -0.12892000       0.16601200       0.28245800 
I       4.54576065       5.47264752      22.49201863       53       0.04851400      -0.17179700      -0.27110600 
I       3.45316795       5.22572737      31.07886203       53       0.14459500       0.37923600       0.17871700 
I       4.85540744      21.19863637       6.83661890       53       0.32435900      -0.24554100       0.07207500 
I       4.22250013      21.58043612      15.23072799       53       0.24145900      -0.10738600       0.28768400 
I       3.77518833      21.75224265      23.65536951       53      -0.01137700      -0.62503600      -0.21377300 
I       4.86421935      21.99480221      31.36974692       53      -0.25713800       0.15891200       0.08055700 
I      13.48023753       4.76633681       6.79435512       53       0.08666800       0.41892700      -0.02539800 
I      13.19620383       4.98954892      14.72228637       53       0.11734800       0.25836100       0.43574500 
I      13.20820527       5.80707653      23.87273038       53       0.33711200      -0.73621300      -0.33928800 
I      12.33063748       5.64418397      31.24937688       53      -0.24356400      -0.19095700       0.00949400 
I      14.24879243      20.72379198       5.52213258       53      -0.15033100       0.13688100      -0.05977500 
I      12.64024098      21.05821274      13.76521344       53       0.06790700      -0.14080700      -0.11213900 
I      13.82054870      21.46987794      22.31007448       53      -0.30978900      -0.16163400       0.04688400 
I      13.98615247      20.94690409      31.48886341       53      -0.24273100       0.80435700      -0.33042200 
I       8.76471663       2.95227955       1.22672696       53      -0.07736400      -0.29279700      -0.04585500 
I       8.47739033       2.60466050      10.10817567       53      -0.11501600       0.07948400      -0.31557100 
I       9.02469796       3.04586644      17.72503237       53       0.27368000      -0.55069400       0.16804600 
I       9.04953894       2.79314555      26.60832222       53      -0.27581700      -0.67668500      -0.24085600 
I       9.34430506      17.96922793       2.03761678       53      -0.69131600       0.05024400      -0.10042300 
I       8.83291205      18.29521202      10.07108172       53       0.44008500       0.47982200       0.19153000 
I       9.18536281      18.58944415      18.25495225       53       0.10298200      -0.04820400      -0.16453900 
I       8.58567439      19.21142110      26.76021536       53      -0.09962900      -0.39976100      -0.24793400 
I      17.87992432       2.46285859       2.94679117       53      -0.00399100      -0.14309100      -0.28881100 
I      17.45715454       2.81892050       9.73836293       53       0.05096200       0.21358200       0.39501500 
I      16.87319314       3.81353994      18.20561977       53       0.25912000      -0.31349200      -0.08398300 
I      16.68948207       2.77250848      27.39381851       53       0.07327500       0.41605200       0.04005300 
I      18.10680325      18.14579607       2.09131193       53       0.03209200       0.33873000       0.11502000 
I      17.69154030      18.84766990      10.39456079       53       0.13182800      -0.78515400       0.11187500 
I      18.56903696      18.60399184      19.01400249       53      -0.08425600       0.03154900      -0.00330000 
I      17.61120014      19.01529418      27.69465442       53      -0.02528800      -0.40747300      -0.44122300 
I       4.74074020      10.73961193       2.05937132       53      -0.06293900      -0.88758700      -0.02232300 
I       4.83006649      10.64597349       9.50180409       53      -0.12782800      -0.12753200       0.33963700 
I       4.05292956      10.78791869      17.89757083       53      -0.19971100      -0.17605200       0.17602400 
I       3.09658133      10.46695084      26.72169159       53       0.38209900       0.00974900       0.00939800 
I       4.46589573      26.25489935       2.45805369       53      -0.15265000       0.35188700       0.63068300 
I       5.08391927      26.65771656      10.88488273       53       0.09035100      -0.43496200      -0.17741000 
I       4.10268574      26.92831693      19.15103764       53       0.03332800       0.41453500       0.30586300 
I       3.77783458      27.30991668      27.38519628       53      -0.02789200      -0.35055900       0.04561800 
I      13.20479720      10.21075178       2.40953972       53      -0.06184700       0.37695400       0.05838300 
I      14.51576721      10.10823959      10.57176292       53      -0.19298000       0.26822500       0.33707800 
I      13.33210502      10.51699360      19.25429207       53      -0.21367100      -0.03612100      -0.43579500 
I      12.52976734      11.15312961      27.42083875       53      -0.09857900       0.03686700       0.09533100 
I      13.27619246      26.42085361       1.94352682       53       0.02603200      -0.10313100      -0.04171500 
I      13.73479131      26.01815289       9.50367101       53       0.05820900       0.16658800       0.26792700 
I      14.22973465      26.27694254      17.55145480       53      -0.32257400      -0.54177800       0.41190500 
I      12.51393208      26.15830643      26.82014111       53       0.43375000       0.60205700      -0.52638200 
H       0.70932190       8.64443835       2.01410460        1       0.87468200      -3.80063800       0.26541900 
H      -0.64254392      10.19700198       9.67415596        1       1.70174900      -0.80749500       0.18862000 
H       1.09202159       9.54717906      19.21414879        1      -1.71450500       2.93174200      -0.43714700 
H       0.22348735      11.28992353      27.23184548        1       0.16592000       0.68386600       0.76756900 
H      -0.91245567      26.72014631       3.14582516        1       0.12405800       0.39082000      -1.20679300 
H       0.76288509      28.06893394      11.00890205        1      -0.77530300      -0.48489100       1.27982700 
H      -1.12331069      27.02987248      19.17970522        1       1.19153600       0.78435500       0.43237600 
H      -0.75735651      25.82967197      26.50289986        1      -0.30584000       0.54801900      -0.06140300 
H      10.44428501      11.59987855       2.97068272        1      -1.68105500      -0.27340600      -1.29692200 
H      10.98718978      11.11910045       9.08442682        1      -0.38093100       0.09808500      -0.06724900 
H       8.23650903      12.39713609      18.53163066        1       1.03835700      -1.34987700       0.42557300 
H       7.61842775      11.63535403      27.93105863        1      -1.31907500       0.01604800      -0.05647300 
H       8.76229820      27.45625238       1.71457377        1       0.68841800      -1.51391900       1.31114200 
H       9.09816734      25.64934526      10.87042574        1      -1.01633300      -0.69376400       0.06674800 
H       9.27777450      27.06085025      19.57344558        1      -0.77343900      -0.03274300      -3.69039600 
H       7.94840132      27.88509710      26.41705484        1      -0.45091100      -0.42612400      -0.98671100 
H       3.09675039       2.25004079       2.49730732        1       1.05174300       0.87249500       0.35883900 
H       3.20019450       1.01288447      10.53821002        1       0.92351900      -0.31263500       0.69768700 
H       5.55311345       1.73544382      18.69291093        1      -0.61919400       1.13469800       0.39153600 
H       3.25394325       4.05407177      27.13291764        1       0.37449900      -1.13951600      -0.83319400 
H       4.59982588      16.66796669       2.99611954        1       0.28540900      -2.39158800       1.41003900 
H       3.42925991      19.33794339       9.75436829        1       2.73977300      -0.14599400       1.68856600 
H       4.70431632      17.66774669      18.23268743        1      -2.49083700      -1.66727000      -2.44914800 
H       4.70024437      20.35488538      26.68929946        1      -0.34744400      -0.24424000       0.24477900 
H      12.58970237       3.35468131       3.26190676        1      -0.02727100      -1.52441700       1.70335400 
H      11.77960530       2.67378474       9.77166429        1       0.90074500      -0.38822300       0.10095000 
H      14.33009129       3.11258050      19.35095302        1      -0.96993000      -0.56105200       0.82461500 
H      13.18670433       2.94150691      28.68332984        1      -1.53721400       0.44868800      -1.94383800 
H      13.81383153      19.49004373       1.74664118        1      -0.28832200       0.47992000      -0.28868900 
H      15.25699363      17.39324859       9.13067390        1       0.59704100       1.27222100       0.06355300 
H      14.80254303      17.82302831      19.38431520        1      -1.44170800       0.43283900      -0.52981300 
H      12.63368359      18.88527001      27.17288154        1       0.45566500       0.43315100      -1.29910500 
H       4.82737385      11.47687155       6.03712643        1       0.03362100       0.85392800       0.11411200 
H       4.43061302      12.53100851      12.92025426        1       1.00828700       0.75105000       1.17337700 
H       5.93876454      13.59080085      22.66437566        1      -0.64258800       0.64959800      -1.21314900 
H       5.17796181      13.76909983      32.47014333        1       0.56600100       0.30648200      -1.01184000 
H       4.66800790      27.61578532       7.28794905        1       0.69822400       0.64529800      -0.19679500 
H       5.23586911      30.64488974      14.95299809        1       0.94842300       1.41373200      -0.37063300 
H       3.99994984      30.43814276      23.17864893        1       0.76483500      -0.41651800       0.69513500 
H       4.96654702      28.16102606      30.00258704        1      -0.95151200       0.67446400       0.79870800 
H      12.85430614      11.54571642       7.41087153        1      -0.09236400       0.67202900       0.45510200 
H      14.33411789      13.67714997      14.74493056        1       0.90605500      -0.73294400       0.72055200 
H      12.99046092      14.84968594      22.24325115        1      -0.49175500       0.48174500      -0.06532800 
H      12.01063246      13.76479078      30.17168341        1       1.96868200      -0.66640800       1.23019700 
H      13.35842118      28.85947017       5.39525773        1      -0.43797200       1.30256500       0.23886300 
H      14.61869279      28.68176909      16.10615466        1      -0.08915300       0.57076100      -1.52291300 
H      13.29239059      30.51430684      21.47576424        1      -0.27461600       1.27966300      -1.33376800 
H      14.43089327      30.23607697      31.20463900        1      -0.33267600       0.53755700       0.88026700 
H       1.27145660       5.43658651       5.36665303        1       0.32763400       0.59537800      -1.38115700 
H      -0.77321342       6.61926628      14.28785947        1      -0.13717500      -0.83340400       0.70560600 
H      -1.18154581       5.43147441      22.42846936        1       0.79761200      -0.65866900       0.99505800 
H      -2.46877787       5.35442274      31.57895357        1      -0.42300000       0.93014200      -0.19993700 
H       0.08254004      22.34519328       7.67927820        1      -0.36338400       1.19438400      -1.07707400 
H      -0.19067256      21.60136493      13.26091594        1       1.95336000       0.75258100       1.37614400 
H       0.72777455      20.47741200      22.28563555        1      -0.74795100       1.83562300       1.16873700 
H       0.87090628      20.32954649      31.47746297        1       0.16014300      -2.04564300      -0.82603100 
H       7.84916009       5.51227330       4.77530645        1       1.20886200      -1.23268700       2.68218600 
H       8.38640743       3.58652906      14.37245610        1      -0.64229300      -0.59499000       0.80775000 
H       9.52863466       5.04245030      22.17835762        1       5.17338300      -1.27428200      -0.98653700 
H       8.18447875       4.84454615      29.77949452        1      -1.74556800       1.92154700       0.95089500 
H       9.77911648      20.09103621       4.95912164        1       1.40568700      -2.33130000       2.01010300 
H       7.52991792      22.02314507      14.91189508        1       0.67311500       0.58523200      -0.44635400 
H      10.42996204      21.68590280      21.21999299        1       0.54353700      -0.16362200      -0.43182000 
H      10.04214508      22.70203349      30.10573117        1       1.12244700      -2.39322200       0.66323300 
H       8.52205295      12.03232206       2.64345642        1       1.10483200      -1.65110600       0.18710800 
H       9.80785726       9.63663832       8.94353414        1       0.87230600      -0.26694500       0.08552500 
H       8.60851959      10.67159381      19.41836395        1      -0.45993300      -0.16473300       0.72342800 
H       9.19022853      11.57389640      27.30085633        1       0.26834100      -0.46535500      -0.30320400 