768
Lattice="17.3192338208 -0.0799681083756 -0.677655688284 0.352808851489 29.3826246762 1.02257831427 -1.47618637471 1.31919490399 31.3471227642" Properties=species:S:1:pos:R:3:Z:I:1:forces:R:3 energy=-99814.8792176 stress="-4106.026421 -1421.735087 805.445594 -1421.735087 -1367.527825 1356.143051 805.445594 1356.143051 -3923.589867" pbc="T T T"
I       2.16037357       1.04655655       6.04665011       53      -0.07952300       0.13085200       0.33759300 
I       1.81280832       1.70383432      14.10276257       53      -0.13810400      -0.19297100      -0.10502500 
I       0.40422135       2.04089396      21.77909189       53       0.20295700       0.25002300       0.23013300 
I       0.97948199       2.55787942      29.56876826       53       0.07683800       0.03852300      -0.13393700 
I       1.60557896      16.98640973       6.27187718       53      -0.19106300      -0.37514400       0.05702700 
I       1.33442024      16.91886166      13.39874458       53      -0.14076000       0.27370900       0.69369300 
I       0.66330865      17.68994646      21.86353279       53       0.25851900       0.05361900      -0.11496500 
I       1.15799112      16.80990605      30.61137879       53      -0.97290000      -0.55349400      -0.83805300 
I      10.58027305       1.23059591       4.74102951       53       0.02010800       0.03262400       0.24790100 
I      10.46032476       1.34468279      12.71122336       53       0.17822700       0.14424400       0.03433600 
I       9.32718144       2.11173636      21.10781955       53      -0.14368100       0.10868200      -0.16059400 
I       9.39043006       2.49445070      28.64131851       53      -0.16003000      -0.30637100       0.07144800 
I      10.28717059      16.00826600       5.89906807       53       0.51907600      -0.27989000       0.28065800 
I      10.58665446      16.26345376      14.39078023       53      -0.48078500      -0.25820000      -0.09886500 
I       9.88004226      16.83621800      21.95006727       53      -0.11109200       0.09803000      -0.25815400 
I       9.05933157      17.10803714      29.27507705       53      -0.11035900       0.00383500       0.00927200 
I       6.33292668       8.74892570       5.99722757       53       0.86996600       0.37694100       0.49258000 
I       5.94846157       9.20864985      14.00759818       53       0.13435900      -0.14050500      -0.37759100 
I       5.78348219       9.78573583      20.90885504       53      -0.20812100      -0.16973200       0.07080000 
I       4.82159315       9.70453888      29.05038160       53       0.19814300       0.12580200       0.05009700 
I       7.08908246      23.24275559       6.51820262       53      -0.11831800       0.22272000       0.07158900 
I       6.30919635      23.45879885      14.98254443       53      -0.16605900       0.41674000      -0.19550900 
I       6.15853593      23.58501041      22.88311020       53       0.11732100      -0.01854200      -0.09189100 
I       5.64408560      24.14814928      30.08963486       53       0.44635400       0.30677200       0.32726200 
I      15.23938516       8.65758338       6.05680227       53      -0.28377400       0.00316800      -0.15422400 
I      15.15011220       8.37158376      13.84851605       53      -0.43266800      -0.09034800      -0.03783000 
I      14.66094640       9.65328423      21.55309304       53      -0.53344900      -0.49515500       0.15281900 
I      14.34926619       9.60953040      30.06229259       53      -0.55646100       0.50337000      -0.34668100 
I      15.70678153      23.35363530       6.80243695       53      -0.61666500      -0.19018100      -0.57283200 
I      14.59219563      23.59298573      14.06880745       53       0.06636600       0.07267400      -0.30696500 
I      14.29851120      24.42205036      20.96167648       53       0.09362900       0.00893600       0.33056800 
I      13.96813897      24.56093372      29.96191655       53       0.37596500       0.14931600      -0.23152500 
I       6.07302887      13.12451620       1.89291878       53       0.63604500      -0.11015000       0.29931200 
I       6.26865549      13.76561384      10.49712488       53       0.10398100       0.03459800      -0.24296900 
I       5.66062305      14.17757326      17.62809420       53       0.17346300      -0.27075000       0.32830900 
I       5.65057160      13.69912998      25.04032308       53      -0.05894800       0.11699600       0.28536500 
I       6.49070058      28.14926510       2.12438976       53       0.18072400       0.04075300       0.47518400 
I       6.36093517      27.69644528      10.26096225       53       0.12218400       0.04569000      -0.11428400 
I       5.13057264      29.65446124      17.70819982       53       0.74731100      -0.32850400       0.08234900 
I       5.47253309      29.27193670      26.02058943       53      -0.05784700      -0.22853600      -0.12895900 
I      15.10378062      13.16357064       2.16791313       53      -0.02085400       0.06720100       0.06554200 
I      15.67593577      12.80935381       9.24509943       53      -0.19640400       0.15131200       0.00402300 
I      14.10409115      14.43063937      17.40261148       53       0.42411100       0.10724700      -0.14686400 
I      13.75572604      15.19700154      25.60762874       53       0.62002800      -0.12331900      -0.13087000 
I      15.84567748      27.81674992       2.35819737       53       0.10821700       0.01713300       0.14551900 
I      15.69454645      27.98137197      10.54024057       53      -0.72902800       0.29400500      -0.26670500 
I      14.70740289      28.18798740      17.94249256       53       0.27064300       0.35345800       0.10773600 
I      14.85926018      27.99673965      26.32054004       53      -0.11361700      -0.08759900       0.06186700 
I       1.73448641       6.03305354       2.28311748       53       0.59634000       0.19679500       0.04335600 
I       2.03976680       6.10058806       9.87054664       53       0.23638400       0.20642300      -0.31925300 
I       1.12096246       7.18619904      17.46786458       53       0.29029500      -0.01051700      -0.15614100 
I       1.56671044       6.37131974      24.52244286       53      -0.18075300       0.23458100       0.28006700 
I       2.57091242      21.04155550       2.90809407       53       0.12757600       0.18385300      -0.01355700 
I       2.24492971      21.31709212      10.23384464       53       0.43685400      -0.02961700       0.45174700 
I       1.83332761      21.57688631      18.84307260       53      -0.65279500      -0.56243600       0.52695600 
I       1.62200698      21.34388728      26.85004140       53      -0.18682200      -0.01450700      -0.82383700 
I      10.83980482       5.84386643       2.02265513       53       0.13331800      -0.16726700      -0.07822100 
I      10.95834125       5.50959467      10.07558851       53       0.24673800       0.14917300      -0.39524800 
I      10.12176515       6.78581526      17.82447613       53       0.35820600       0.12293400      -0.03984000 
I      10.56923388       6.61489798      25.76727349       53       0.35351900       0.17663600      -0.00919200 
I      10.78676646      20.60151787       1.70159550       53       0.13359800      -0.10695400       0.11707000 
I      10.94538379      20.71471483       9.71173274       53      -0.42907400      -0.31200500       0.52080600 
I       9.86866902      21.79729392      17.41670579       53      -0.31613900      -0.54981400       0.25134600 
I      10.36562808      21.81537491      25.45892827       53       0.04574500      -0.21026700      -0.07299200 
I       6.19490708       1.66800545       4.89518953       53       0.14806700      -0.11252000       0.02757100 
I       6.31999923       2.09694194      13.10093208       53      -0.47633300       0.30664200      -1.09838100 
I       5.04195815       1.85750726      21.44094963       53      -0.28073100       0.40632300       0.15672700 
I       4.95221747       2.15155192      28.41978471       53      -0.22104900      -0.09351200      -0.20355600 
I       6.36837402      15.58083045       6.52916335       53      -0.72211600      -0.04680000      -0.49024900 
I       6.16846634      17.00629573      13.56054874       53       0.24367500      -0.13613700      -0.01644200 
I       5.74286387      16.48204572      20.99836718       53      -0.35589200       0.61147300       0.18812400 
I       4.66532988      15.57311368      29.24691846       53       0.25608100       0.00866700       0.04446600 
I      14.55904812       0.57830706       5.38966574       53       0.33723400       0.74125400       0.22030900 
I      14.83092245       1.25465936      12.95744616       53       0.23660900      -0.02781800      -0.03486100 
I      13.85782671       1.39573990      20.60650970       53      -0.27751800       0.10991200      -0.19627100 
I      14.03316741       2.24251465      28.77043899       53       0.10501600      -0.17857500       0.21204500 
I      14.20601751      15.23752884       6.01650834       53       0.65164300      -0.03779900      -0.00267200 
I      14.11162102      16.40562273      12.97159372       53       0.50265000       0.04257800      -0.03583700 
I      14.01472425      16.76815864      21.15177189       53       0.12832900      -0.15147600       0.33721500 
I      13.98422807      17.95466082      29.58959161       53       0.15784800      -0.80493800      -0.10046400 
I       1.91882983       8.29906418       6.12299853       53      -0.03869800      -0.03406600      -0.00937800 
I       1.35386563       8.86146226      12.88448502       53       0.46203800       0.03991500      -0.07093700 
I       1.41939761      10.20466154      21.02445447       53       0.21762100      -0.13470600      -0.25428700 
I       0.84798809       9.16682593      29.03442322       53      -0.50232700       0.24407300      -0.09509700 
I       2.51587443      24.06024459       6.36293384       53      -0.19161000      -0.30270200      -0.18482500 
I       2.12852170      23.91815890      15.43388268       53      -0.10384800      -0.08970400      -0.93268400 
I       2.05333626      24.18611529      22.41478615       53      -0.05133900       0.03314800      -0.13485300 
I       1.48843017      23.83168446      30.00537601       53      -0.35485100       0.19904600       0.15875300 
I      10.78413449       8.44928303       5.78782330       53      -0.24842200      -0.10739200      -0.03436300 
I      10.47513370       9.17462501      13.64374338       53       0.43985700      -0.34749500      -0.04066600 
I      10.13597662       8.89638088      21.79825065       53       0.27166700       0.00648100       0.10811400 
I       9.94591026       9.59551259      28.91691323       53      -0.06049400       0.04998700      -0.17226400 
I      11.10757238      22.65910130       6.35254250       53      -0.87784900       0.30154400      -1.03925000 
I      10.71932393      24.62761416      13.04647219       53      -0.04432300      -0.31820300       0.04220700 
I      10.02228870      23.45811616      21.55076707       53       0.11348200       0.68750600       0.19845100 
I       9.84459686      24.59250671      29.05710193       53       0.06322700      -0.23542300      -0.02705500 
I       5.77609660       5.44882502       2.33535404       53       0.13703000       0.45457600      -0.05860300 
I       6.42378677       6.48068592      10.00766471       53       0.14220000       0.01482600      -0.09433900 
I       5.35747786       6.73074822      17.43397337       53      -0.15702500       0.27435100       0.05862900 
I       5.43945432       7.15144213      25.02666841       53      -0.19493400       0.22637900       0.63676200 
I       7.14220700      21.04388631       2.89942929       53       0.13468200      -0.06154400       0.53332800 
I       6.57888705      21.93043692      10.78476779       53      -0.26729700      -0.23008200       0.38371800 
I       6.02083202      20.17458101      18.88794874       53      -0.55490600       0.75160500       0.13733100 
I       5.73720969      21.45425376      26.44984742       53       0.76359500      -0.30309800      -0.24971600 
I      15.06115298       5.82189946       1.80574713       53      -0.06286400       0.08034200       0.92891100 
I      15.12136679       6.17470734       9.72186553       53      -0.10937900       0.25911900       0.21458100 
I      14.44503386       6.10411284      17.78946842       53      -0.54957700       0.41899500      -0.06038100 
I      15.09353259       7.87836833      25.86286589       53       0.33459000      -0.19475000      -0.16400100 
I      14.81686300      20.36479166       2.26744961       53       0.51501800      -0.21470500       0.17689500 
I      15.26319296      20.72404196      10.37947739       53      -0.39367600       0.18099300       0.26543700 
I      14.52470275      21.86375648      17.80030326       53      -0.13429800       0.04016700      -0.33709800 
I      14.80770146      22.04814736      25.80173505       53      -0.44187700       0.34458900      -0.14609700 
I       2.07867599      13.03483072       2.89371701       53      -0.00929600       0.60415600      -0.25413600 
I       2.08161686      14.02637445      10.83409834       53       0.32779900      -0.14192400      -0.36476300 
I       1.09081005      14.92472341      17.89879102       53       0.07756600      -0.32775300      -0.04877400 
I       0.82860467      14.68926573      26.47696116       53      -0.13959000       0.34162000      -0.06055400 
I       2.41388512      27.91094015       3.61621108       53       0.23965600       0.19691200       0.23328000 
I       2.64508787      28.46120580      11.10622832       53      -0.32441800       0.19363900      -0.12586300 
I       2.03711644      28.37720646      18.83129652       53      -0.65829900       0.06955300       0.49518500 
I       1.41820557      29.88804903      26.62020693       53      -0.15581200      -0.14854300      -0.24599200 
I      10.32662593      12.75282069       2.33960025       53       0.04374900       0.10075100       0.02978900 
I      10.91831556      14.02274605      10.33561316       53      -0.22142100       0.09052000       0.06952900 
I       9.98029242      13.35126164      17.67455941       53      -0.70072000       0.60796500       0.42742800 
I       9.81880878      14.49730141      25.65261141       53      -0.51772700       0.10339800       0.01666100 
I      11.14566525      28.23347651       2.32562892       53      -0.23409200      -0.13175000      -0.25228900 
I      10.29183222      27.68618272      10.03471551       53       0.38759600       0.28525800       0.18567100 
I       9.67752779      29.20170726      18.65490323       53       0.41436900       0.04954400       0.27062200 
I      10.06820969      28.78005953      26.19749885       53      -0.21387000       0.25886800      -0.24155500 
I       0.28378211      12.67175544       6.53424040       53       0.13516400      -0.00903000      -0.37704900 
I      -0.40297702      13.14046295      14.43128139       53      -0.24414800       0.43412400      -0.40608600 
I      -0.59034653      13.52902998      22.05483283       53      -0.07389500       0.64532000      -0.01656700 
I      -1.84154986      13.56800018      29.95676203       53       0.15651800       0.25726200       0.32763000 
I      -0.04604204      26.87205389       7.29214018       53       0.14683800      -0.21816800       0.48135000 
I       0.18526529      27.30726818      15.05739869       53      -0.00660700      -0.46317900      -0.05169900 
I      -0.43952150      27.44806791      22.85132999       53       0.13946400      -0.11302500       0.04497100 
I      -0.42917277      28.35228505      31.00255262       53       0.16225000      -0.75977900       0.40200800 
I       9.04748093      11.91304128       7.17663564       53       0.00681400      -0.14694500      -0.18616400 
I       8.26791630      12.45718600      13.63236336       53       0.02213700       0.35127900      -0.00697800 
I       8.09649838      12.84856706      21.76192308       53       0.14071100       0.30298800       0.07590800 
I       8.13672065      13.08315128      29.87541500       53      -0.38279400      -0.05455000      -0.19339300 
I       8.69081902      27.34214614       5.40998071       53       0.04838700      -0.72623600       0.42411800 
I       8.31997372      27.64115261      14.58033628       53      -0.13593900       0.10115100       0.19573900 
I       7.41032220      27.82202257      21.98754137       53       0.22129400       0.32765900      -0.07552900 
I       7.19800611      27.77346476      29.83979142       53       0.22640400       0.12022200      -0.11699900 
I       4.59348717       5.08417812       6.04450715       53      -0.18556300      -0.15947800       0.43947200 
I       4.38698117       5.05771317      13.60164349       53      -0.28079800       0.88378600      -0.05617200 
I       3.04167573       6.02530191      21.15505072       53       0.48740500      -0.08252700      -0.54560300 
I       3.40715251       5.99393034      29.51123387       53      -0.12482500      -0.15298000       0.04899200 
I       5.06490606      19.96798979       6.41115951       53      -0.30472800       0.15841000       0.22338000 
I       4.11967357      20.22628498      14.52009051       53      -0.53111500       0.45622500      -0.13681400 
I       3.64242716      19.98564568      22.84301963       53       0.21633200       0.22930500       0.04884500 
I       3.33015142      20.23293656      30.93918296       53       0.19977400       0.15076200      -0.24662300 
I      13.41927356       4.78876131       6.17664791       53      -0.02637700      -0.56028700      -0.61599700 
I      12.48433654       4.91590152      13.78640040       53       0.20261100       0.62210200      -0.12023100 
I      12.50374320       5.66168049      21.75146202       53       0.13363900      -0.25415200      -0.11440600 
I      12.29928041       5.73540759      29.88567561       53      -0.34997100       0.07400600      -0.43595600 
I      14.49244224      19.35048110       6.05870314       53      -0.69477100      -0.02086800      -0.26813100 
I      12.00669699      20.44899823      13.95718018       53       0.13258100      -0.17651800      -0.12133700 
I      12.43380621      20.21398212      21.20804065       53      -0.06928400       0.27839500       0.34546200 
I      12.25330809      21.13086332      29.23839797       53      -0.22534100      -0.28408400       0.16483100 
I       7.79455491       2.53096323       0.35299284       53       0.24766500       0.06571700       0.21161600 
I       7.71018857       2.13594312       8.80991226       53      -0.03684900       0.58076600      -0.26411100 
I       7.40283784       3.75802563      17.01451506       53       0.18952800      -0.23478000      -0.16358300 
I       7.64319148       3.55404799      25.22517392       53      -0.32330200      -0.26193400      -0.32637600 
I       8.57125032      16.43572673       2.46842829       53      -0.08004100       0.54032100      -0.59276700 
I       8.35948038      17.51633814       9.70223131       53       0.27553700       0.13505900       0.09478100 
I       7.83105969      17.42420370      17.55741061       53       0.37488200      -0.08346200      -0.11833800 
I       7.06535019      17.89605544      25.61845681       53      -0.00082400      -0.04352700      -0.12197500 
I      17.44888011       2.13693955       2.00762249       53       0.24044100       0.87867500      -0.20418900 
I      16.95459466       2.62336589       9.24176928       53      -0.02696700      -0.31675300      -0.03689100 
I      16.73923312       2.76529277      17.26727033       53      -0.15482200      -0.11641200      -0.27995500 
I      14.81881326       2.98961735      24.71664407       53       0.01743500      -0.25008500      -0.10335900 
I      17.96729970      17.14196514       1.59704491       53      -0.15773600       0.04859100       0.31591500 
I      17.27681728      17.56103611       9.34331896       53      -0.18021700      -0.00605200      -0.00716200 
I      16.45438776      18.48820504      16.99007977       53       0.14057500       0.13041000       0.06612500 
I      16.52409042      18.63680868      25.80224634       53      -0.16562700      -0.62869200      -0.29618500 
I       4.31556067       9.60783482       1.75316390       53       0.14184100      -0.40782600       0.49885700 
I       4.65910630      10.30040791       9.77013477       53      -0.08530100       0.00270400      -0.26532700 
I       3.68922742      10.84391255      16.68149537       53      -0.05466500      -0.40298100       0.19574300 
I       2.47079977      10.43873060      25.06859400       53       0.10720300       0.18249600       0.20464000 
I       4.74243652      24.81677221       2.07154605       53      -0.02564800      -0.42734800       0.22103100 
I       3.73079085      25.06723444      10.01823423       53      -0.05069800       0.06309900       0.47448700 
I       4.39072577      24.85286835      19.10201077       53       0.04707700       0.06976400      -0.41222600 
I       3.71140065      25.21523480      26.53847740       53       0.18722900       0.04998300      -0.02689400 
I      12.75809334       9.83222718       1.75295764       53       0.05767500      -0.53701000       0.05934100 
I      12.47195040       9.64339159       9.30660308       53       0.03710000       0.52777400       0.52748900 
I      12.75399239      10.24446838      17.47867812       53       0.17523900       0.09770200      -0.04474700 
I      12.12498553      10.77002857      25.37559902       53       0.18521100      -0.21195500       0.17093300 
I      12.96745500      24.36109383       2.29744419       53       0.17946100      -0.32924600       0.20338700 
I      13.02604683      24.87419234       9.38814766       53       0.00412200      -0.58252600       0.21803500 
I      11.67333741      25.48754101      17.83200697       53       0.28852200      -0.38714400       0.11836400 
I      12.20263929      25.40746542      24.83605977       53      -0.03872000       0.53159200      -0.02418500 
H      -0.07768184      10.24332089       1.76968488        1      -1.83561600       2.17085000      -2.59305800 
H       1.78259490       9.97840317       9.57067931        1      -0.09443000      -0.04825200      -0.57905800 
H       0.70600311      10.51102164      17.17587766        1      -0.32291600       0.21898400      -0.58327400 
H      -1.45112844      12.57281740      25.58018673        1       0.62641600      -1.82088800       1.38183500 
H      -0.50139119      23.67704026       2.27739454        1       0.79356700       1.24868500       1.71088300 
H       0.29110960      25.02766968      10.06510227        1      -0.73647200      -0.32893800      -0.25523000 
H       1.34518730      24.90424308      17.99051100        1      -1.25264000       0.52026800      -0.04936800 
H       0.17508215      23.76429906      26.67795436        1      -0.72455100       2.28377300      -0.35244800 
H       7.60422128       9.68183500       2.16509039        1       0.43501300       0.62173800      -0.06862700 
H       8.07632092       8.98616804      11.12534060        1      -0.21449400       0.11690900       1.49960700 
H       8.94347164      10.56798084      16.77540866        1      -0.94002400       0.17288400       2.21239600 
H       7.28905986      10.56670068      24.77925067        1       0.96927000       0.92458000       0.43091200 
H       9.60569283      23.69093799       2.75608572        1      -0.34829700       0.03575400      -2.14065300 
H      10.03313710      24.92027796       9.22000276        1      -0.58845000       0.75591300      -0.30621500 
H       8.98666480      24.13804553      18.39719292        1      -0.57086300       1.17805700       0.46738300 
H       8.64103044      25.39156224      25.80202653        1       2.58537200       1.64325900      -1.20188700 
H       3.93538824       2.47423450       0.73203133        1      -0.05399400       0.76144400      -0.96399800 
H       3.21176508       2.21986596       9.32124450        1       0.32618300      -0.48317000       0.20138900 
H       3.64082358       2.30354962      17.59201259        1       0.99763900      -0.39923300      -0.01944400 
H       4.61148779       3.63305646      26.11284394        1       1.89788800      -1.06898400       1.50988200 
H       5.71155718      16.72393225       3.00602019        1       0.22739700       0.10258400       0.22683200 
H       5.13285891      17.58317932       9.34312723        1       0.67300800       0.09520400       0.57670700 
H       4.31645736      17.86726936      17.60315343        1      -0.04765500       1.45828100       0.29947400 
H       3.30965731      18.99713094      25.81408730        1      -0.74891900      -0.54231400       0.87727300 
H      13.40675572       1.30952208       1.95271426        1       0.56954700       1.86929800       0.10191000 
H      11.52014283       1.15299154       8.95329360        1      -0.75137200      -1.18967000       0.67249500 
H      12.53267356       3.77868631      16.91144798        1      -0.53058700       0.89038200       0.21043000 
H      11.57664206       3.96448806      23.80904642        1      -0.53996500      -2.32298600       0.39762100 
H      13.75916852      17.21759215       2.59849775        1      -0.07856600       0.89872400       0.63985800 
H      14.05453691      17.28420480       9.39598838        1       0.52479500      -0.67012600       1.48149000 
H      13.11268298      17.94709512      16.67543642        1       0.29713500      -0.04885700      -3.56605800 
H      10.69713715      17.91080338      25.07220013        1       0.71246200       0.56583000      -0.06195900 
H       5.86928072      12.20250178       5.60777256        1      -3.15877900      -0.22909800       0.17300900 
H       4.25093894      14.47981595      15.20558013        1       0.57993700      -0.03199200       0.18377700 
H       5.15096992      13.29185640      21.21246794        1      -2.23738700       0.74279800       0.31703300 
H       2.12189239      13.04830044      29.32976547        1      -0.47881800       1.31195800      -1.62724000 
H       5.76439121      26.09329009       6.92193786        1       0.14515900      -0.53427900       0.02816700 
H       5.30410639      27.48273767      15.65473283        1       1.05670700       0.40097100       1.20881200 
H       4.80422680      27.98749096      23.14053678        1       1.09627600       0.47142700      -0.05316800 
H       4.55189760      27.91101278      29.65995371        1      -1.59676800       0.16409100      -0.67338400 
H      12.12001694      12.74598415       4.68670131        1      -0.29603000       0.29805800       1.06174200 
H      13.36819611      11.68634716      14.82389805        1       2.06209900      -1.42084200       1.55698300 
H      11.80542587      13.75792904      19.72200231        1       0.22681800       0.08280800       1.35468500 
H      12.75372706      13.08365966      28.96740386        1       1.38868600      -0.77468700      -0.33132200 
H      13.65403305      25.59751241       6.20220746        1      -2.32872100       1.37543900      -0.03008100 
H      13.68782839      27.23831309      15.57909904        1      -0.15912200       0.05984400      -0.01744800 
H      13.37691802      27.57391537      21.76735551        1      -0.48543900      -0.25249600      -0.79656500 
H      11.26523976      27.26351628      30.74059998        1       0.39022600       0.35314200      -1.66149100 
H      -0.65242926       4.71814067       5.41305716        1       0.23755400      -0.07934200       0.38437200 
H      -0.34070934       5.94108566      14.09783465        1       0.87286200      -0.48755100      -1.24946000 
H       0.42506407       5.64372828      21.24345507        1      -0.87508700       0.76383400       1.30366700 
H      -0.07386171       5.88479366      29.92880873        1      -0.42758800       0.32502100       0.54809600 
H       0.48906121      21.74630266       6.62686772        1       0.53119100      -0.20182200      -0.45499500 
H      -0.09720761      21.62229409      15.18771024        1      -0.52131900      -1.26695400      -0.84142100 
H      -1.22227490      21.32393641      21.43068708        1       0.96786800      -0.10958900       1.09077800 
H      -0.09206277      20.55180579      28.91239880        1       0.12170900      -0.09581900       1.42302500 
H       9.69122701       4.80190567       4.85748400        1      -0.34458200      -1.25681500       0.47995100 
H       7.86145710       5.01837210      12.50032590        1       0.56793500       0.99988100       1.25428900 
H       8.15096795       6.43296767      21.01399051        1      -1.20200800      -0.97191400       1.25384300 
H       7.24964326       6.39894477      28.44005320        1       0.02423000      -0.53299100      -0.27729200 
H       7.86035609      18.19458064       6.37158603        1       2.70212000       1.77971600       0.27159000 
H       9.32498039      20.33733415      14.46812315        1      -1.16700000       0.28172300      -0.81577600 
H       7.53282209      19.10447134      21.87780237        1      -0.58497700      -0.64681100      -0.33213600 
H       6.75207898      19.94838462      30.48655099        1       0.56652700      -0.41029000       0.18349900 
H       8.13008069       8.90721573       0.76000787        1       1.44065400       0.32703700       1.60001300 
H       9.12180260       8.77481255       9.86274660        1      -0.15957500       0.34503100      -0.36836700 
H       8.64298941       9.23815735      17.73625285        1      -1.41282500       0.34659100       0.52943500 
H       8.87621891      10.04396033      25.29755212        1      -0.48266500       1.36937400       0.47296700 