768
Lattice="17.0431948292 -0.0673014595292 -0.712529398488 0.38472290391 29.5530923757 1.48755482477 -1.52173829666 1.82920186205 31.1268859319" Properties=species:S:1:pos:R:3:Z:I:1:forces:R:3 energy=-99828.2915192 stress="3646.64867 -1449.825153 -872.532508 -1449.825153 -1938.128338 -452.234641 -872.532508 -452.234641 -940.241002" pbc="T T T"
I       2.35292354       1.21663248       6.04488220       53      -0.24912400       0.23095200      -0.05803100 
I       1.83382254       2.11198334      14.07790523       53      -0.18609600      -0.04208000      -0.17030400 
I       0.82675518       2.49281185      21.79558891       53      -0.36951200      -0.00408500      -0.31498600 
I       0.75011753       2.99359629      29.17677311       53      -0.25183300      -0.30564000       0.15261800 
I       1.61070428      16.70434053       6.21388657       53       0.47006200       0.39776200       0.04192200 
I       1.21809092      17.29830402      14.26779016       53       0.77555800       0.29219100      -0.85713900 
I       0.87095127      18.01412566      21.97862835       53       0.15392000       0.02137700       0.01314200 
I       0.95266609      17.55820104      30.50270766       53       0.28826500       0.16195300      -0.01206800 
I      10.60150968       1.76363548       4.93265740       53      -0.23759500      -0.31493400      -0.02116300 
I      10.03682550       1.88471066      13.15108349       53      -0.00543500      -0.27837500      -0.15761900 
I       9.09485922       2.78300479      20.86135472       53      -0.03606400      -0.18078500       0.32454900 
I       9.52177335       3.05485870      28.73584347       53      -0.06780600      -0.17571500      -0.11638900 
I      10.55641721      15.85764809       6.38409817       53      -0.28169000       0.43071800      -0.27177000 
I      10.05669825      16.96437930      14.25800139       53       0.45331100      -0.12436000      -0.06512200 
I       9.85163163      17.22470936      21.86445243       53      -0.31386900       0.24287400       0.15957200 
I       9.02257247      17.87255800      29.67017541       53       0.05683400      -0.01670900      -0.08348300 
I       6.67174373       9.01325193       6.53167067       53      -0.48808700      -0.16963600      -0.51104400 
I       5.67332242       9.67285315      13.78774161       53       0.05411000      -0.07146800      -0.19073600 
I       5.57478077       9.85012823      21.15276662       53       0.12607300       0.25059700      -0.00046500 
I       4.81981675      10.56311803      29.11060556       53      -0.08628800      -0.44365500       0.13885700 
I       6.60193105      24.16527770       6.86219366       53      -0.27681800      -0.59938100       0.11781700 
I       6.04632500      24.51067250      15.33550314       53      -0.11074800      -0.69957200      -0.36254200 
I       6.17182927      24.03353595      22.80528382       53      -0.38956200       0.14331900      -0.15436500 
I       5.36293611      25.11705817      30.50176143       53       0.04176200      -0.19391000      -0.15982300 
I      14.82642845       9.03573365       5.88098335       53      -0.22747600      -0.19411900       0.03667400 
I      14.35128503       9.51517223      13.80780986       53       0.29320300      -0.83138600      -0.20267900 
I      13.79442875      10.07512526      21.56469945       53       0.73824100       0.15310000      -0.40445400 
I      13.26923983      10.65376337      29.66441495       53       0.46900000      -0.10345000       0.10267900 
I      15.55173681      23.74647396       6.70957917       53      -0.43500400      -0.35483100      -0.21063600 
I      14.58704541      24.09853146      13.99535855       53       0.03906900       0.01056400       0.09375200 
I      14.43802913      24.74606241      21.62402151       53       0.18177900       0.25689000      -0.57580500 
I      13.86330106      25.48405884      30.09679824       53      -0.44853500      -0.29504400      -0.24802500 
I       6.27018520      13.54028827       2.30193963       53      -0.33197100      -0.30918200      -0.07928500 
I       6.05083034      14.12413747      10.32764797       53       0.41020700      -0.06283000       0.04541200 
I       5.65768815      14.29728648      18.00999276       53      -0.05659400       0.04984500      -0.32026100 
I       5.30842730      14.33622651      25.54611792       53       0.04134500       0.13855800      -0.03190200 
I       6.66002536      28.29770266       2.50904826       53       0.07615700      -0.37854400       0.18061900 
I       6.17995041      28.00127614      10.47311980       53      -0.19283200       0.16975700       0.39347500 
I       5.71394768      29.32123029      18.33622155       53      -0.24722200       0.22376200      -0.17059400 
I       5.67304481      29.21047663      26.54939158       53      -0.26774800       0.52507600      -0.21408400 
I      14.89411798      12.86782988       2.34481315       53      -0.19305400       0.22832900      -0.18023300 
I      14.91317059      13.13042482       9.32480930       53       0.23596100       0.08295900       0.31687400 
I      14.48033081      14.48740504      17.21687365       53      -0.32062000      -0.09412500       0.49089900 
I      14.02829081      15.29638227      25.41122664       53      -0.39537500      -0.22676400       0.19108800 
I      15.25640902      27.98545712       2.81721564       53       0.01809700      -0.05755300      -0.00180900 
I      15.24697899      28.37773323      10.63706655       53      -0.15949200       0.08562900       0.15699300 
I      14.68128701      28.74555795      18.41943196       53      -0.24811300      -0.14589000      -0.32973600 
I      14.36376684      28.49606748      26.63125498       53      -0.14491500       0.69823900      -0.14247400 
I       1.86575188       6.70639054       2.54544482       53       0.08753000      -0.62539200      -0.28307700 
I       2.03063606       6.30441755       9.81759870       53      -0.26641100       0.28859700       0.34736600 
I       0.99839785       7.02648449      17.09959707       53       0.11593900      -0.08138800       0.25949900 
I       1.17711377       6.85433841      24.95059433       53       0.49829600       0.17349700       0.05670900 
I       2.45343292      21.01854591       3.16002689       53       0.13027500      -0.12727300      -0.04497700 
I       2.50574135      21.12641006      10.99380925       53      -0.29546300       0.27643500      -0.15700000 
I       1.45685324      21.74331176      19.21145822       53       0.17246700       0.12987500      -0.32097100 
I       1.58785502      21.71352512      26.32319807       53      -0.15253300      -0.06774000       0.66504300 
I      10.60764256       5.87622679       2.25042982       53      -0.14519600      -0.21251400       0.00472200 
I      10.70134751       5.98353572       9.66182979       53      -0.30214600      -0.05192500       0.09849400 
I      10.12074754       6.95673829      17.69855953       53      -0.15368600      -0.19087300      -0.05809900 
I      10.28883013       6.96222993      25.51088949       53      -0.34539400      -0.04882600       0.04903500 
I      10.53154548      20.68733670       2.23500474       53       0.06219300       0.04044200      -0.00783300 
I      10.66615916      20.89736320      10.39412734       53       0.10752600       0.23551500      -0.18682600 
I       9.62675581      21.88776601      18.03820072       53       0.20366000       0.12103700      -0.20677800 
I       9.92149026      22.18163047      26.04945366       53       0.16255800       0.29826900       0.03390700 
I       6.29329057       1.59979039       5.10843298       53      -0.08428000       0.09344600      -0.10378800 
I       5.93067402       2.29191235      12.47188615       53       0.07130300      -0.22091500       0.42729300 
I       4.63772256       2.70317070      21.45718622       53       0.48015300      -0.75047200      -0.48539100 
I       4.73763468       2.58425288      28.34858393       53       0.35934700       0.05871000      -0.10932000 
I       6.17215478      15.60595530       6.57715317       53       0.09520000      -0.04728400      -0.25150100 
I       5.98993156      16.72885058      13.73522692       53      -0.40385800       0.29013100      -0.16277800 
I       5.11078388      16.68933773      21.50096101       53       0.29583300       0.30085100      -0.07281700 
I       4.68249440      16.49585264      29.19549044       53      -0.03561300       0.27182100       0.25187500 
I      14.34999472       0.67867828       5.56935169       53      -0.03994300       0.10330400      -0.45123700 
I      14.29584857       1.57847778      12.42556593       53      -0.17364900       0.12990500       0.46398500 
I      13.55589712       2.06594367      20.14433563       53       0.14171800      -0.41410900       0.44291400 
I      13.74768722       2.86966288      28.51378775       53      -0.54761000      -0.16314500      -0.16219900 
I      14.59171400      16.02409042       6.32702438       53      -0.15946900      -0.23050800      -0.57324100 
I      13.93440014      16.48741087      12.89921572       53       0.05462200      -0.04005100       0.33552200 
I      13.82551449      16.66234970      21.42471535       53      -0.32414000       0.28894300      -0.15720700 
I      13.80350198      17.92353409      29.36276072       53      -0.65618900       0.17455700      -0.15152400 
I       1.66025125       8.25355970       5.95527400       53       0.25669800       0.13783400       0.18616400 
I       1.54424347       9.51579979      13.46151184       53       0.13045300      -0.28022300      -0.49621400 
I       1.40394755      10.35639356      21.33076114       53      -0.27090400       0.04206300       0.03946700 
I       0.57750908      10.16131805      28.89238852       53       0.21543500      -0.34979100       0.35482100 
I       2.58857933      23.92228375       6.59249614       53       0.07637300       0.25493700       0.13783400 
I       1.54134321      24.07084451      14.99220020       53       0.26522200       0.01787300       0.02215000 
I       1.35939857      24.45079033      22.17147709       53       0.03909000      -0.07687000       0.32841100 
I       0.94811774      24.67449902      30.20279535       53       0.10298400      -0.08178600      -0.07692000 
I      10.38380192       8.61866499       5.25628700       53      -0.06679600       0.18304800       0.21746500 
I      10.21831071       9.12992832      13.30682307       53      -0.24101700       0.22781300       0.11366800 
I       9.84664536       9.46040928      21.83511056       53      -0.53116100      -0.29127400      -0.44912400 
I       9.47824099       9.94026135      28.61326782       53      -0.36390300      -0.04571400       0.47647300 
I      10.63374791      23.42708772       6.16340804       53       0.20820500      -0.08567700      -0.00331200 
I      10.37302880      24.45039738      13.42976041       53      -0.19441900       0.03478100       0.00206300 
I       9.96849962      24.29245058      22.10998008       53      -0.64807700      -0.01858400      -0.54376900 
I       9.34102910      24.68184402      29.30884233       53      -0.06015700       0.09494900       0.15685300 
I       5.91484522       5.69862230       2.39160648       53       0.11807500      -0.00943100      -0.11381700 
I       6.33472129       6.65104694       9.88941918       53      -0.02230100      -0.18651200       0.26564600 
I       5.43290323       6.99986792      17.87366454       53       0.02675100       0.07351400      -0.55925200 
I       5.61259569       7.66045154      25.40622277       53      -0.62630700      -0.05358600      -0.06279500 
I       7.17558777      21.50293460       3.32026008       53       0.69070000      -0.79894600      -0.55322400 
I       6.36988520      22.00587542      11.33331750       53       0.07730000       0.03473800      -0.06514500 
I       5.60092619      21.25042265      19.12697705       53       0.55426800      -0.54568200      -0.08762100 
I       5.82318132      22.35158499      26.46357513       53      -0.37951700       0.19350900       0.28860500 
I      14.93042557       5.97824251       2.22451705       53       0.07069400      -0.00802100      -0.43239400 
I      14.74737831       6.41942435       9.95610285       53       0.17912900       0.09780900      -0.22640300 
I      14.19294527       6.70654890      17.62050939       53       0.42900300      -0.22725700      -0.15341400 
I      14.81749402       8.39449492      25.69180774       53      -0.38420300      -0.05162700       0.15429100 
I      14.61066593      20.25441872       2.76869505       53      -0.04617400       0.63457700      -0.20623900 
I      14.82151744      21.14828377      10.53393745       53       0.16900100      -0.08022700       0.06984600 
I      14.28088487      21.95192478      18.05237166       53      -0.41412500       0.79615900       0.02314500 
I      14.34169176      22.48517130      25.50399708       53       0.38424800      -0.06890900       0.82838600 
I       2.08785061      13.44232530       2.78551699       53       0.33715800      -0.30786000       0.31065500 
I       2.14737110      14.59975987      10.64883771       53       0.09500900      -0.05021400       0.31721900 
I       1.81555096      15.03920174      18.13079228       53      -0.53428400       0.29819500       0.00402500 
I       1.01372127      15.27603739      26.36637951       53       0.22416500      -0.04055000       0.10621200 
I       2.52158677      28.25688679       3.94326729       53       0.09079100      -0.06106500      -0.01153800 
I       2.12800861      28.59839405      11.32109962       53       0.41866300       0.06532500       0.25337500 
I       1.76496294      29.04958655      19.44522644       53       0.28050900      -0.04589600      -0.27511500 
I       1.36233110      30.43388129      26.63779061       53      -0.39133300      -0.58416700       0.46755300 
I      10.61010686      13.32619436       2.52499534       53      -0.38643500       0.01831200      -0.02856600 
I      10.86610558      14.10392944      10.67462731       53      -0.05654900       0.00628500      -0.10745100 
I       9.74092195      13.92531713      17.84640671       53      -0.03134800       0.11103600       0.03634300 
I       9.59595842      15.06938623      25.67715880       53       0.03386400       0.05764000      -0.06142300 
I      11.25985089      28.32485394       2.46068603       53      -0.04601900      -0.35164500       0.40861200 
I      10.50811265      28.24137471      10.97151130       53      -0.13352000       0.03714600      -0.17672700 
I       9.97000498      29.95258250      19.05694834       53       0.10879000      -0.25630300      -0.06889800 
I       9.71687818      29.51061572      26.28408698       53       0.16365800      -0.14226300       0.12438100 
I       0.75611357      12.80532700       6.40513513       53      -0.67717500      -0.07161500       0.06366400 
I      -0.37919021      13.46837883      14.94074513       53       0.16143200      -0.22088500      -0.51542900 
I      -0.68786295      13.81417246      22.15186632       53       0.21069100      -0.54591100       0.17202100 
I      -1.36336726      13.98376139      30.26192581       53       0.14547200       0.12688800      -0.26679800 
I       0.44708697      27.20599185       7.70061247       53      -0.13257000       0.23566300      -0.27362500 
I       0.57955892      27.76964866      15.40940082       53      -0.48124900       0.23141800      -0.17426900 
I      -0.33691687      28.03781932      23.32575137       53      -0.26316900      -0.28346200      -0.29596000 
I      -0.24829498      28.55376296      31.35374024       53      -0.19436500       0.59057800      -0.19990700 
I       8.89465864      12.04618609       7.20691203       53       0.00983800       0.40308100      -0.03703700 
I       8.12982374      12.86125809      13.69056945       53       0.16827900      -0.08537300       0.31306600 
I       8.58835245      13.58022047      22.04433550       53      -0.67454800      -0.16316600      -0.00558800 
I       8.02143858      13.71422026      29.43202208       53      -0.39865500      -0.20203900       0.32085200 
I       8.49349209      27.19962730       6.61029755       53       0.51835900       0.37362800      -0.07350800 
I       8.15854392      27.81400995      14.87514454       53       0.24333400      -0.00672900       0.06066900 
I       7.93033088      28.40026774      22.40591980       53      -0.07047500      -0.26194600       0.09305600 
I       7.15515785      28.46236983      30.04107439       53       0.29112600       0.12404900       0.31083200 
I       4.59076207       5.03259787       6.39130730       53      -0.08920100       0.02332100      -0.28966600 
I       4.01377498       5.81596828      13.72792982       53       0.25206600      -0.90658900      -0.26941500 
I       3.59976690       6.29369721      20.88866729       53      -0.51693700       0.17189800       0.69077900 
I       3.43336661       6.37047464      29.27942421       53      -0.37306600       0.26881800       0.29613100 
I       4.75175968      19.92161227       6.99578095       53       0.21578400       0.25956900      -0.11436700 
I       4.04580891      20.52518662      14.66378667       53       0.19894800      -0.62963300       0.36098000 
I       3.76906942      20.63976821      22.98124708       53      -0.07071000      -0.22289200      -0.23745800 
I       3.22664898      20.71269425      31.18363128       53      -0.15784900       0.34861700      -0.70380700 
I      12.95921030       4.76032265       5.96005206       53       0.01199900       0.58995700       0.15934500 
I      12.38279212       5.41844100      13.66703006       53       0.15713500      -0.34314100       0.11368900 
I      12.51025140       5.64898051      21.51157773       53      -0.44624000       0.36968300      -0.03971500 
I      12.14709136       6.60193594      29.14978313       53       0.09504000      -0.62126700       0.81300700 
I      14.00847280      19.71755933       6.62792300       53      -0.31317800       0.13342000      -0.07200900 
I      12.40909785      20.42987563      14.50069134       53      -0.11423000       0.55134400      -0.00947500 
I      12.26172378      20.61878208      21.65445721       53      -0.30951000       0.32616400      -0.06734700 
I      11.89831838      21.54030182      29.76993895       53      -0.05754000       0.21898500      -0.00378200 
I       7.78151303       2.42306173       0.82738176       53       0.20020400       0.23574100      -0.11307000 
I       7.47847660       2.64582712       8.77119150       53       0.25572700      -0.30542900       0.13610100 
I       7.72239429       3.53963840      17.11846885       53      -0.21161500       0.39787600      -0.36780200 
I       7.28556921       3.92628602      24.75637611       53      -0.13065000      -0.14459500       0.19962700 
I       8.39799049      17.04806380       2.04184026       53       0.05784400      -0.11762800       0.31686700 
I       7.98629617      17.78653334       9.87998525       53       0.28742400      -0.01126900       0.03574500 
I       8.04149607      17.90953910      17.66263609       53      -0.67830300       0.42280000      -0.18875200 
I       7.06559070      18.56192240      25.70927191       53       0.11458900      -0.05971700      -0.03388300 
I      16.82038448       2.87728255       1.22613093       53       0.05342700      -0.67269600       0.29391000 
I      16.46387149       2.92602113       8.96238434       53       0.02061300       0.13526200       0.13853500 
I      16.53852870       3.28452041      16.85905373       53      -0.12308800      -0.05324200       0.00246600 
I      14.98533223       3.42548105      24.54072014       53      -0.11688900       0.15073200       0.03687900 
I      17.65734093      17.34766526       1.99641446       53      -0.40701200      -0.02399300      -0.42848500 
I      16.79947850      17.85300490       9.58242286       53      -0.03973000      -0.04005700      -0.01931100 
I      15.91308456      18.92240309      17.08750627       53       0.16270400      -0.60133300       0.15857000 
I      15.75719150      18.73855721      25.34662701       53       0.11031100       0.71921000       0.32285000 
I       3.87449077       9.77545244       1.89149555       53       0.25307700      -0.01775200       0.06343900 
I       4.36018248      10.49229363       9.56977390       53      -0.21807100      -0.19045000       0.18351500 
I       3.41657301      11.17240885      17.21627639       53      -0.11438500       0.14227900      -0.26381400 
I       2.49014032      10.96098842      25.13122324       53       0.21844500       0.22663600      -0.05686000 
I       4.57681889      24.58907748       2.67318953       53      -0.08558500       0.46399000      -0.27308100 
I       3.51562297      25.08996358      10.83269239       53       0.05648500       0.03386700      -0.25933700 
I       4.66099801      25.30271733      18.76232924       53      -0.30647900      -0.02194100       0.16626000 
I       3.70868774      25.92483013      26.65950009       53      -0.18617600      -0.12856000      -0.03509600 
I      12.72613318       9.67292549       1.95556927       53      -0.23247700       0.64240200      -0.26424100 
I      12.19002549      10.18496692       9.85186624       53       0.07738900      -0.09931500      -0.41792000 
I      12.40462672      10.73762382      17.11835057       53      -0.20299500      -0.31041600       0.18619600 
I      11.63704600      11.27259858      25.00097317       53       0.23324800      -0.00969500       0.21430900 
I      12.56642882      24.46645393       2.70863790       53       0.04730300       0.54152700      -0.39536300 
I      12.78789119      24.83572731       9.49474524       53      -0.06607600       0.86533900       0.25401500 
I      11.19595312      25.94125911      18.40204502       53       0.95478000       0.17431200      -0.45702400 
I      11.78126272      26.01523109      25.03111171       53       0.18930500      -0.03172500       0.44004600 
H       0.37180708       9.21921199       1.92570737        1      -0.01502400       0.87227700      -0.09318000 
H       0.55061391      11.48240416       9.96373915        1       1.08458900      -0.71731800      -0.32016000 
H      -0.02007118      10.06203154      18.53397641        1      -1.65976300      -0.23055900      -0.26657700 
H      -1.43234026      13.12021279      25.13165725        1      -1.30877100       2.40516800      -0.58320200 
H       0.16766030      24.76570642       2.00589532        1       0.16349100       1.15901100       0.13676300 
H      -0.73055172      24.71231980      10.23239465        1       0.80528700      -2.44007500       1.97274000 
H      -0.50260261      26.65305929      17.78614527        1       0.30276000       0.82945600       1.84250100 
H       0.12082200      26.30534290      26.23240806        1       0.45969300       0.24193800      -0.66569800 
H       6.68406914       9.70346481       2.22951994        1       2.22101800      -1.00441500      -1.27974200 
H       8.05436888       9.12770058      11.11490984        1       0.07965600      -0.79000200      -0.20525000 
H       7.28725248      10.64914367      16.24048832        1      -0.05021000      -0.63683100       0.59006900 
H       8.19161108      11.29779679      24.86480232        1      -0.62038000      -0.86326800       0.02813100 
H       9.14006410      23.50135295       2.18508436        1      -0.34091500       1.22853900       0.81848100 
H       9.09041840      25.28015937       9.40776947        1       2.05651300       4.03206200      -1.33660500 
H       8.72884388      27.78360455      18.76795186        1      -2.03794100      -2.02707300      -2.54363200 
H       8.73486435      26.73985520      25.52334491        1       1.29408000       0.19550700       0.08962000 
H       3.57978076       2.96749779       1.08071090        1      -0.42384900      -0.28696600       0.75955300 
H       2.89984247       2.03844146       8.81267012        1       0.80976100       1.03722900       0.64561000 
H       4.92780114       3.30931882      17.53320517        1      -2.86825400       0.08058900       0.02076500 
H       2.52658672       3.85000125      25.49144880        1      -0.27183900      -0.48911700       0.61563600 
H       3.41634134      17.53719829       3.97331395        1       0.63147000      -1.74016600      -0.30754100 
H       5.07379887      18.45518923       9.88719730        1       1.42599900       0.67169800      -0.22083700 
H       3.48677865      19.61785444      17.22726750        1      -0.67315700      -1.65578200       0.58296600 
H       4.28792799      18.38417519      25.57754677        1      -2.33821800      -0.54564300       0.42122900 
H      12.69893303       2.69214440       0.63157899        1       0.06397100      -0.58269800       0.97240800 
H      12.48157424       2.71207482       8.16667581        1       0.81344100       0.56811900      -1.18620300 
H      13.27899927       3.50546861      16.81653798        1      -0.13318100      -1.17211700      -0.75533200 
H      11.17300415       3.40685853      23.65896056        1      -0.86992300       0.35226400       0.41776500 
H      12.93111280      18.02499849       2.52297385        1       0.81242500       0.25968100      -1.38154200 
H      12.85177919      18.26520850       9.36100057        1       0.02556600       0.26349100      -0.23560600 
H      10.68461452      17.87056779      16.93612050        1       1.79805900       0.39373300       2.07001100 
H      12.41197270      19.13311580      25.43126361        1      -1.31160500      -0.44216900       0.31446100 
H       5.37185490      12.23576800       5.91404073        1       3.24478600       0.54945800      -0.51320200 
H       4.32373217      12.36836409      14.58313440        1       1.01868500      -0.48340100       0.88199200 
H       4.51193286      13.90485886      21.93661113        1       0.68820100      -0.00700000       0.44453500 
H       3.63079204      13.95782124      28.68577842        1      -0.15679200      -0.79139400      -0.24359000 
H       5.61935223      27.26616728       6.59528986        1      -0.61748400       0.39314200       1.26219000 
H       5.38865436      27.38581138      14.24416281        1      -1.31320200       1.93269700      -0.10477000 
H       4.40138740      28.14865217      22.73299218        1       0.27578900      -0.16256300      -0.42363200 
H       3.99343401      27.74127941      29.22515392        1       2.59286200      -0.50918600      -0.33733500 
H      13.81953410      12.56982859       6.40336584        1       0.20707200      -0.54619700      -0.26073700 
H      13.96339598      12.60317238      13.62132470        1       0.03487300      -0.32567500      -0.69474500 
H      12.82210692      13.04954382      20.75287376        1       0.62992400       0.45158400       0.56961100 
H      12.58728103      14.67977382      28.32863005        1      -1.44595500      -0.73272700       0.09527400 
H      13.56755000      27.25863166       5.60504443        1      -0.34577300       0.29557500      -0.17031100 
H      12.02081877      26.78791245      13.88543772        1       0.91724800       1.32676800      -0.39205000 
H      12.55176326      27.26474891      21.90104741        1       0.08441000       0.41046300       0.61899900 
H      10.26437677      28.53866241      29.60558263        1       1.85002200       0.59450000       1.21048200 
H       1.02190986       4.72810299       4.94984298        1       0.57008500       0.15138300      -1.31546700 
H       0.83250586       6.19164923      14.09968901        1      -0.12662000      -0.50471300      -0.12258900 
H       0.38031532       6.51425050      21.86218559        1       1.26939600       0.03200100      -0.73765600 
H      -0.99301568       6.27852530      28.80150663        1       0.22029300       0.09887400       0.53759100 
H       1.45423743      21.58047839       6.34348074        1       0.29076900       1.85556900      -0.00046700 
H       1.15172103      21.11755676      14.46306606        1       2.37015800       0.99033300       2.37487500 
H      -1.34963913      20.99773671      21.69605313        1       0.07699500       0.10534600       2.84286200 
H      -0.72758303      21.45757723      28.86109945        1      -0.40039000       0.22556700       0.62037700 
H       7.65173020       4.56645828       5.85405983        1      -0.53802900      -0.68633000      -0.27919600 
H       8.26098192       5.12505453      14.00438779        1       0.15579100      -2.49023300       0.70251600 
H       7.69899176       5.76614859      20.48836094        1       1.02212000      -0.50074300      -2.14865700 
H       6.17534830       6.96036191      29.63444454        1      -1.15154700      -1.13561500      -1.39345500 
H       9.47026061      19.30965677       7.40076565        1       0.20919700      -1.16277100      -0.87273400 
H       9.29860914      20.01369944      14.42647205        1       1.60982400       0.22250600       0.78089200 
H       8.24873667      20.26223977      21.32780711        1       1.72149100      -0.78455500      -1.29131600 
H       6.33708197      22.27543805      30.69732080        1      -0.13203700      -1.49099600      -0.52570100 
H       7.82243838       8.24462136       1.70545711        1      -0.41688300       2.07745200       0.07935400 
H       8.08642530       9.40168350       9.26990851        1       0.44975600       0.03615700       0.89623000 
H       6.64635979       9.39788881      17.54721091        1       0.55707800       0.73916600      -1.31785300 
H       6.76189836      10.17150369      24.81282233        1       0.21688500       0.24969300      -0.13371100 