768
Lattice="17.6686867792 0.00757643289944 -0.130161324093 0.556141000354 30.5574230962 0.23583145863 -0.452519857243 0.501848771779 32.2351481557" Properties=species:S:1:pos:R:3:Z:I:1:forces:R:3 energy=-99808.6482019 stress="-1582.537812 1448.054064 1998.823488 1448.054064 -388.163771 32.094631 1998.823488 32.094631 -546.656924" pbc="T T T"
I       2.10269938       1.19108456       6.55181529       53       0.37739100       0.18921700       0.43651900 
I       1.92115713       2.21204642      15.05195247       53      -0.52296100      -0.26688500      -0.14034000 
I       2.34746722       2.17173850      22.96798907       53       0.00575000      -0.23068400      -0.12409500 
I       1.88579137       1.14502557      30.53535564       53       0.46039500       0.14648500       0.74942700 
I       2.65617186      16.15867278       5.72966605       53       0.17252000      -0.16000400       0.01623200 
I       2.70895303      16.79332017      14.41875972       53       0.48239900       0.30379300       0.57445400 
I       1.98043785      16.60402721      22.82686555       53       0.06169800      -0.14426700      -0.16443100 
I       1.74680851      16.68475284      30.45462699       53       0.10922800       0.22425200       0.13031900 
I      11.63035136       0.78741814       5.04888613       53      -0.06737400       0.06360100       0.18424800 
I      11.22523432       1.85452360      13.53928203       53       0.18856900       0.27711900      -0.01660700 
I      10.73265033       1.92956968      21.62061805       53       0.28375500      -0.17963800       0.35812200 
I      10.96365447       1.27122994      29.53771844       53      -0.26001200       0.45963300       0.18593000 
I      11.51719948      16.44704968       5.93625757       53      -0.31852600      -0.17618300      -0.01836700 
I      11.40461476      16.60235094      13.70697596       53       0.00409100      -0.39972500       0.10899200 
I      10.97587589      16.49336455      22.44241572       53      -0.14307400       0.02785500       0.08425200 
I      10.88034796      16.73741010      30.52298916       53      -0.13147400       0.12349200       0.06030700 
I       6.38842284       8.50412032       5.50132842       53       0.44659000       0.39734500      -0.07519600 
I       6.99176821       9.22850426      13.67230529       53      -0.08907700      -0.13094300      -0.16791900 
I       6.51822251       9.31242527      21.89133273       53      -0.31128700      -0.17065600       0.23881700 
I       6.37740825       9.22249429      30.11033397       53       0.00635700      -0.36725300      -0.40930900 
I       7.30286132      23.41146174       6.79152815       53       0.97014400       0.59104500       0.34830600 
I       6.45499189      25.14614654      14.35544447       53      -0.20995800      -0.39950200       0.25038600 
I       6.50959338      24.90700889      22.62630515       53      -0.03114700       0.02619600      -0.00476800 
I       7.30394827      23.85949577      31.03971478       53       0.12666900       0.32481700      -0.23731900 
I      15.35487580       9.01015874       7.01026453       53       0.27789900      -0.03621200      -0.35650000 
I      15.36524467       9.09326076      14.70370955       53       0.56486800       0.38561300      -0.44958500 
I      15.18903543       9.24963084      23.02333300       53      -0.01620200      -0.00430500       0.24705800 
I      15.51085301       8.92844589      30.80029507       53      -0.13634600      -0.16808900       0.04017200 
I      15.77531192      24.29019397       5.71460989       53       0.03112100      -0.13795200      -0.01448700 
I      16.13502476      23.84212266      14.03486899       53      -0.72084700      -0.09937500      -0.01068200 
I      15.56298846      24.23946078      22.15845210       53       0.67440100       0.15139700      -0.11077800 
I      15.65235128      24.50443345      29.90123007       53      -0.05384800      -0.04222400      -0.34923000 
I       6.98345438      13.60970427       2.16500524       53      -1.12711300      -0.56641800       0.83274700 
I       6.79423093      13.83568264       9.70681784       53      -0.56303900       0.23414100       0.23199700 
I       6.61008462      14.30731131      17.86415693       53       0.27093100       0.24174400      -0.17371300 
I       6.11938140      14.84123878      26.70641423       53      -0.17576200      -0.72808900      -0.17098100 
I       7.45082590      28.78849878       1.74190362       53       0.06437800      -0.03096400      -0.32058700 
I       7.48222664      29.34635029       9.62868921       53       0.08459200       0.23587700       0.23460900 
I       7.39471939      29.77549009      17.80974785       53      -0.95783800      -0.42106000      -0.74783000 
I       6.72445844      30.17014055      25.84182446       53      -0.14508400      -0.18054500      -0.11611400 
I      15.27544465      13.49738146       2.10275781       53       0.14732500       0.43982400       0.32738700 
I      16.18596647      13.99650026      10.25481022       53      -0.51259900      -0.46419000       0.13896200 
I      15.89280355      13.95943507      17.84546115       53      -0.23082200      -0.00638200       0.55295100 
I      14.84353659      13.91767151      26.78297136       53       0.42285200       0.45578900      -0.67119500 
I      15.36176823      29.39206678       2.87094424       53       0.91504500       0.12383700      -0.11196600 
I      15.80304382      29.79302035      11.00729275       53       0.27917800      -0.08395100       0.02775300 
I      15.85077706      30.00166087      19.23490903       53       0.08708400       0.11221600      -0.21555500 
I      15.59765913      30.89746400      26.54869830       53      -0.18192100      -0.31848500      -0.30022900 
I       2.17934415       5.96219635       1.39635038       53      -0.39024200       0.10685700      -0.03972000 
I       2.51243319       6.08042739       9.72875837       53      -0.24064800       0.00602400       0.19857700 
I       2.57153259       6.38369323      17.75180189       53       0.18789900       0.04356800      -0.30407900 
I       1.79305386       6.64953425      26.07651759       53       0.37464800       0.08036400      -0.02078300 
I       3.08059011      21.01310216       2.72100118       53      -0.02793100       0.09332300      -0.18935500 
I       2.24036259      21.30394813      10.31981382       53       0.75455800       0.29520900       0.35525600 
I       1.81477277      22.80898069      19.01198299       53      -0.19827200      -0.84935800      -0.53606900 
I       2.52789532      22.20801271      26.97208299       53      -0.59618800      -0.31095600      -0.10572900 
I      10.83163757       6.50965080       2.14636889       53       0.13486300      -0.12298300       0.09997600 
I      11.18098557       6.10146431      10.94306785       53      -0.29220600      -0.09987400       0.07945500 
I      11.09616599       7.31274866      18.85982372       53      -0.30855600       0.04413600      -0.41316700 
I      10.35067965       7.11339106      27.18072149       53       0.06277500      -0.25417700      -0.34892200 
I      11.27447660      21.38259959       1.61152571       53       0.17154700       0.13916500      -0.13286000 
I      11.21896142      21.64346924      10.19114743       53       0.02578500       0.00662300      -0.68309200 
I      10.94547950      22.20775181      18.33813378       53       0.15762600      -0.05663400      -0.37906900 
I      10.65358385      22.55564617      25.77881848       53       0.01171400      -0.08432900       0.05525700 
I       7.37813506       1.23790008       5.23815592       53      -0.20196100       0.21429700       0.18832600 
I       6.30109994       1.01717112      13.47476801       53       0.10922900       0.52600700       0.08958800 
I       6.09022407       2.02939102      21.29813359       53       0.49982700      -0.26416200       0.02252600 
I       6.09595298       1.70244593      29.89065469       53       0.30102800      -0.28189000       0.02046500 
I       6.72125802      16.66271359       5.98699076       53       0.40984900      -0.46473700       0.00379100 
I       7.10726222      16.80872387      13.33539026       53      -0.23524600      -0.07989700       0.06745500 
I       6.57895083      17.21577002      22.10723437       53      -0.12012000       0.01170300      -0.04318400 
I       6.25688847      17.01785598      30.24918084       53      -0.02489800      -0.13336200      -0.01417400 
I      15.42945849       1.22772262       6.61310673       53       0.32198300      -0.04076300       0.50204400 
I      15.42100766       1.28888411      14.63750416       53      -0.56700500       0.71962700       0.02776200 
I      15.61158602       2.59072099      22.65128995       53      -0.05029500      -0.54418300       0.01735400 
I      14.84388414       1.22174287      30.18423769       53       0.63769100       0.09971100       0.53156600 
I      15.92475834      16.60656981       6.01117974       53      -0.29569800      -0.15880000       0.34906200 
I      15.61680219      16.71663510      14.73895341       53       0.25667700       0.12821000       0.12029100 
I      15.50433834      17.29008172      21.98674179       53      -0.37827500      -0.12434800       0.14328700 
I      14.94299831      17.15645504      29.84020054       53       0.27220100      -0.66832700       0.05404100 
I       2.14613014       8.80833812       4.90317705       53      -0.18253300      -0.04831700       0.12196100 
I       2.28351028       9.50255032      13.46058827       53       0.29003000      -0.03648600       0.03023200 
I       1.98043282       9.23061773      22.15753338       53       0.06342200       0.14075500      -0.44712100 
I       1.98754888       9.64067390      29.50310519       53       0.18947500      -0.03403700       0.20281100 
I       2.36772846      23.90167538       6.29909628       53       0.23650800      -0.23452900       0.09673000 
I       2.13343526      23.59923357      14.41163157       53      -0.41483200       0.31113900       0.32522600 
I       2.22578292      24.42396773      23.15716216       53       0.12295000       0.09637000      -0.16330200 
I       3.26553324      24.81530091      30.56088341       53      -0.60373000       0.35366200       0.32820200 
I      11.15738893       8.83190858       7.07215536       53      -0.26410100       0.30923700      -0.18556400 
I      11.00426863       8.98964868      14.68800767       53      -0.17366300       0.01415600      -0.02566300 
I      10.40099176       9.57561389      22.56157052       53       0.12333300      -0.05256700       0.06404100 
I      10.84942774       9.21865117      30.36669967       53      -0.27712600       0.28141600       0.97088200 
I      11.40415036      24.91124186       5.73123049       53       0.46656100      -1.04741800      -0.16062700 
I      11.07332185      24.02999725      13.31545641       53       0.57974100      -0.03746400       0.41118600 
I      11.26447946      25.21035130      21.92190038       53      -0.00243500       0.01622700      -0.19286000 
I      11.25169089      24.73646612      29.87392831       53       0.19792600      -0.18315000      -0.37084300 
I       6.45659058       5.10320354       1.24476330       53      -0.40055300       0.49819100      -0.11214600 
I       6.74201287       6.61539951       9.20771315       53      -0.27716200       0.38254400       0.17346100 
I       7.16110818       7.56040463      18.38602518       53       0.25876200      -0.68099200      -0.22340100 
I       6.49996795       6.73991553      25.57828427       53       0.52159700      -0.42683000       0.50098300 
I       7.45272177      21.59066389       2.83517050       53       0.21657700      -0.20766200       0.13469900 
I       7.11337696      21.30700853      11.03492694       53      -0.25859700      -0.25432100      -0.22965900 
I       6.78422572      22.06692344      19.06566878       53      -0.38521900       0.38046000      -0.24475800 
I       6.48349745      20.97581435      26.90983757       53       0.24480200      -0.03303500      -0.29349600 
I      15.62538196       6.33851468       2.86757861       53       0.16361000      -0.15646900      -0.18648200 
I      15.48999641       6.19573907      10.99152841       53       0.07738000      -0.15935400      -0.20588500 
I      15.82582248       7.59424724      18.75206430       53      -0.05146800      -0.18847500       0.24760900 
I      14.66193793       6.49570174      26.49748459       53       0.53453900      -0.38590200      -0.24954800 
I      15.59750399      20.97164283       1.55337324       53       0.23643600       0.16618900       0.15190600 
I      15.56087499      21.26924624       8.98832097       53       0.09427800      -0.13902300       0.20387900 
I      15.49768466      22.15419999      18.07419770       53       0.28747900      -0.26058500      -0.29055900 
I      15.52343003      21.61392810      25.77680777       53      -0.20352300       0.21452100      -0.04343700 
I       2.21778541      13.08097281       1.23372856       53       0.26760400       0.68155100       0.41716000 
I       2.91394183      14.27399555      10.64618773       53      -0.20582200      -0.02745300      -0.13322500 
I       2.56862633      13.79202119      19.47530690       53      -0.30739600       0.48244400      -0.11094800 
I       1.79428991      14.19232199      26.21217110       53       0.42510500      -0.34691000      -0.12432800 
I       2.48585876      28.81638581       3.20876893       53       0.10118500      -0.03193100      -0.51081600 
I       2.49874807      28.42331995      11.46896457       53      -0.06801400       0.63404100      -0.19292300 
I       2.74660148      29.57866502      19.21353767       53      -0.03392500       0.02602100       0.11765700 
I       2.01628312      28.78908406      26.80257075       53       0.31939400      -0.13319400      -0.03732000 
I      11.12880580      13.66552569       1.94518190       53      -0.15066300       0.18413000       0.40292700 
I      11.35607864      13.63100512       9.74973384       53       0.29120300      -0.18952900      -0.11414500 
I      11.20981349      15.21801849      18.05123569       53       0.19922800      -0.45732800      -0.23817800 
I      10.40856718      13.47455244      26.69772163       53      -0.20704500       0.58231100      -0.16686700 
I      12.09007593      28.35681336       1.32593418       53      -0.87112500       1.00740100      -0.18967700 
I      11.71131674      29.57891284      10.45001745       53       0.55661200      -0.25526400      -0.67866800 
I      11.22299897      29.12970018      18.00166803       53      -0.03315400       0.39880700       0.13058100 
I      11.23735702      30.07845775      26.19330910       53       0.20275000      -0.38066200      -0.74691500 
I      -0.23207497      12.41788232       6.37012093       53       0.04326800      -0.37808200       0.54810300 
I       0.22215540      12.71870025      14.52503830       53       0.52531700       0.59593700       0.02164300 
I      -0.47263503      12.63556801      22.60178777       53      -0.05986800       0.64516800       0.11888500 
I      -1.27696490      12.91704242      30.32547203       53       0.42195000      -0.14346000       0.10947800 
I       1.09219000      27.80471393       7.33195014       53      -0.30682700      -0.27273100      -0.40258800 
I       0.32936076      28.24932794      15.47013913       53       0.04835200      -0.32042500      -0.17805300 
I      -0.61061758      28.30080457      23.24144280       53       0.36907800       0.13908500      -0.12605800 
I       0.22046100      28.18254835      31.24009687       53      -0.09241900      -0.35638000      -0.06939500 
I       8.94919369      12.59070074       5.83967593       53      -0.18663200       0.00182700       0.06896500 
I       9.55722938      13.05737113      14.75326009       53      -0.00825600       0.03121200      -0.32108700 
I       8.35517959      13.07901650      22.16848048       53      -0.06509200       0.02662800      -0.08985600 
I       7.77861113      12.67946821      30.61330697       53       0.15731100       0.28507500       0.03337200 
I       9.56208490      27.70533180       5.56684577       53      -0.40500300       1.02168800       0.14228800 
I      10.03044868      28.10414471      13.70530372       53      -0.57490900       0.39620300       0.32229400 
I       8.85565633      28.67281941      21.61976581       53       0.02943400      -0.45528500       0.27745300 
I       9.43865987      27.99061406      29.96041409       53      -0.29385200       0.22281600      -0.47425100 
I       4.66937343       4.58772303       5.19480575       53      -0.37668100       0.45469300       0.15067700 
I       4.66503770       5.59089977      13.35343428       53       0.08475500       0.10898800       0.09724300 
I       4.54099414       5.61516127      21.49219343       53      -0.22657900      -0.60319800      -0.02209500 
I       3.63756622       5.21127222      29.60685931       53       0.07099700       0.22122300       0.05296100 
I       4.59351843      19.93500830       6.53413695       53       0.20271500       0.44365200       0.19417900 
I       4.89094757      20.29542529      14.89026750       53       0.01807600       0.22988000       0.03945200 
I       4.24237731      20.66953747      22.56843373       53      -0.14238200      -0.08699700      -0.27661500 
I       5.51072517      20.46423135      31.11498751       53      -0.59001000      -0.28580300       0.11711800 
I      13.52275108       5.31961189       7.03815358       53      -0.09675400      -1.19930800       0.12679600 
I      13.85708725       5.35083231      15.22081293       53      -0.33531800       0.14052800      -0.46500700 
I      12.56551145       5.47347060      22.87362768       53      -0.02114000       0.29640000      -0.23271400 
I      13.20464768       4.99106911      31.02407938       53       0.14159600       0.20326900      -0.47295300 
I      13.00545831      20.41277185       5.39125809       53       0.33835400       0.04935400       0.15573400 
I      13.59432273      20.17989904      13.53261021       53       0.94633900       0.21257800       0.34630200 
I      12.72656681      20.60979839      22.15031457       53       0.31208100       0.26459300      -0.33705300 
I      13.64851825      20.77548665      29.34610953       53      -0.24541100       0.23600200      -0.01328400 
I       9.42633771       2.25665782       1.16215389       53       0.13663700      -0.15521000       0.00802900 
I       9.08599459       2.62351089       9.20019413       53      -0.06914100       0.05524100       0.12669400 
I       8.64356959       3.18303766      17.29151621       53       0.09092700      -0.20237700      -0.13375600 
I       8.65184011       3.00278585      25.63954851       53      -0.43551500       0.27268500      -0.17921100 
I       8.05232174      17.68077522       1.60966711       53       0.23277900       0.03692900       0.42976200 
I       9.68920095      17.34148179      10.15035498       53      -0.27865300       0.46597400      -0.32094600 
I       8.18617406      18.41823081      18.33233536       53       0.54959000      -0.41703600      -0.18103700 
I       9.07503843      17.76316704      26.45620860       53      -0.04094000       0.16489300       0.19664700 
I      18.05642365       2.44184272       2.56634161       53      -0.15136000       0.05302300      -0.25392400 
I      18.28574246       2.56493835      10.73020142       53      -0.19398400       0.09514300      -0.06746500 
I      17.82051060       3.10179526      19.09021941       53       0.00437800       0.06724700      -0.40534200 
I      18.34414879       2.58430303      26.71822061       53       0.24071200       0.36483500       0.10257100 
I      17.45439794      17.24995715       2.09897412       53      -0.07116800       0.18928800       0.03589200 
I      17.55356650      17.91140462      10.57818318       53       0.18692200      -0.26468200      -0.40798100 
I      18.01667483      18.17965427      18.98167928       53      -0.07458100       0.08240000      -0.39234100 
I      17.77923359      18.20834418      26.32721683       53      -0.04855600      -0.47281700      -0.08705500 
I       4.91699011       9.84540884       1.11871205       53      -0.09155700      -0.18479000       0.64176600 
I       4.10377322      10.14959542       8.79546897       53      -0.14151700       0.27483800       0.13054700 
I       4.89715197      10.76697648      17.53541872       53       0.01719000      -0.36290000       0.00588800 
I       4.30464389      10.36048942      25.55585819       53      -0.03165600       0.27527100       0.39455600 
I       4.90943282      25.55028341       2.71719936       53      -0.08687900      -0.58726000      -0.04082700 
I       5.04445974      25.53358725      10.37777086       53      -0.09091600      -0.62753500       0.03851700 
I       4.14450221      25.80903053      18.30517363       53       0.41299100       0.40858800      -0.15247700 
I       5.07516036      25.40086620      26.56137606       53       0.15759900       0.31864600       0.56678300 
I      13.43908393      10.07045640       2.28437763       53      -0.25720300      -0.58264100       0.08304100 
I      13.91367729      10.32240881      10.55160774       53      -0.13653100       0.67303400       0.41848800 
I      13.46650355      10.96541334      18.83455484       53      -0.18520900       0.40205700      -0.26160300 
I      13.11285810      10.52939421      26.84615061       53      -0.03489500      -0.41686100       0.12318200 
I      13.74061911      25.30273724       1.40552048       53       0.33932000      -0.35134900      -0.32925200 
I      14.37532694      25.55065714       9.81195810       53      -0.09299500      -0.28139100       0.04205400 
I      13.33600878      25.94187952      17.12048285       53      -0.02414900      -0.25634600       0.02066800 
I      13.71169851      26.42905795      25.78129158       53      -0.07914100      -0.15340800      -0.03341800 
H       1.14469616      11.02365749       1.90466244        1      -1.79392700      -2.57531000      -1.13843600 
H       0.02925807       8.15238082       9.69857856        1      -0.11001500      -0.40684800      -0.03894800 
H       1.02634424      11.53837944      18.39742861        1       0.55250100       0.87852100      -0.40561700 
H      -1.24052932       9.73537478      26.34692301        1      -4.12867300      -2.63832500       0.48986000 
H       1.80604592      23.92299537       1.63411499        1      -1.70002800       1.15710900       0.47965700 
H       2.07575222      24.95445201       9.82633428        1      -2.12389200       1.11780700       1.82859300 
H      -1.31017488      26.64058761      19.47218304        1      -0.40950700       0.41789100       0.97788200 
H       0.82003377      25.52507195      25.32937010        1       1.40200900       0.50902500      -1.55981100 
H       7.31726470       9.47821024       2.68361565        1       1.53369000      -0.01447200      -0.38052300 
H       9.72763717      10.56009080       9.30789916        1      -1.20768800       0.51265500       0.21909700 
H       9.68526717      12.12046628      18.22470287        1      -0.74066400      -0.18215200      -1.39026600 
H       8.08687152      11.13808973      25.55088884        1      -1.10219400       0.58246200      -0.97738900 
H       9.21245182      25.58039673       2.61372026        1      -0.19297700      -0.04709100       1.01198100 
H       8.41313462      26.66050836      10.26061570        1      -0.09405500      -2.36071600       0.42639300 
H       9.40604020      26.55806886      18.51314727        1      -1.01198200      -0.94444100      -1.88540500 
H      10.37978762      26.88763815      26.52884907        1      -2.59743500      -1.08457700       0.65211900 
H       4.44249044       0.75538577       2.25192620        1      -1.32978100      -2.39001300      -1.22608400 
H       3.82408186       3.13972577       9.90050294        1       2.12498000       0.37204500      -0.75427200 
H       4.89741690       2.90228353      16.14970718        1      -0.59335400       0.66868400       0.55164600 
H       5.13901757       3.97824681      27.51339751        1      -0.43912000       0.03445700      -1.20623900 
H       2.56542491      17.68361802       1.65269493        1      -0.28799400       0.97124700       0.45356600 
H       4.18028502      16.65832649       9.10545095        1       1.20790300       1.53665900       0.14166100 
H       4.56517204      18.63882579      18.09373262        1      -0.28637200      -0.69368200      -0.95404900 
H       5.40405270      18.27662374      25.71898269        1       0.54758800       0.81084000       0.31520700 
H      14.63492126       2.32012920       1.61562168        1       1.60286400       0.26457600      -0.24293600 
H      12.18083496       2.11816957      10.46522371        1      -1.47937000      -0.82220200       1.58509300 
H      12.53740581       3.10841972      18.64516618        1      -0.13394700       1.68236400       0.71548200 
H      11.67506954       4.54177485      25.59522019        1       0.04031500      -1.24748000       0.74653500 
H      12.55183337      17.52031522       0.92189000        1      -0.02303600      -0.11861700       0.43905100 
H      14.47446529      17.77975642       9.79243224        1      -0.75659000      -0.54914700       1.63652400 
H      13.20033210      18.07742632      17.12151339        1       0.43521200      -0.75577600       0.91942400 
H      12.81993997      18.74762885      26.82431283        1       0.21809500       0.31531400      -1.65723000 
H       4.66135174      11.20494387       5.33065065        1      -2.17963300       2.21391000      -1.76545300 
H       5.50228743      12.72005214      12.58370657        1       0.43091400      -0.64835100      -0.38619700 
H       5.15783425      12.40943854      23.39470615        1      -0.50623700       1.69347500       0.11741200 
H       4.36307641      13.20999984      29.06242798        1      -0.12906300      -0.21479200       0.33700200 
H       6.49736995      28.05294208       6.98117268        1      -0.13439400      -0.39538700       0.22867200 
H       4.51858922      30.51166833      15.25419215        1       0.21374700       0.08551000      -1.99230000 
H       3.72072263      28.12283747      22.88632961        1      -3.61052400      -0.21265400      -1.62358000 
H       5.99920211      29.29368799      30.56613987        1       0.38186500       0.98456100       0.16190600 
H      13.59934447      11.28907844       5.68194389        1      -0.67452100       1.11597800      -0.93148200 
H      14.80267664      12.12050355      14.53818449        1       2.54650800      -2.01576300       1.73981400 
H      13.18973558      12.54040576      21.61017464        1      -1.08362000       0.20706500       0.09719000 
H      12.16521971      12.48602287      30.25613774        1       1.14414500       0.35831200       0.24010600 
H      12.35840314      27.74111964       7.18146915        1       0.66443100       0.05636500      -0.49054100 
H      14.52968530      28.63147592      14.02590037        1      -0.35583900       0.47257400      -0.42977600 
H      13.51115222      29.39859353      20.86363861        1       0.09560000      -0.32862900       1.32715200 
H      14.31410602      28.60986883      28.34659459        1       0.26844400      -1.03307300       0.01024200 
H       1.03140124       5.57473751       6.30172551        1       1.19575400       1.05005800       0.36479100 
H       0.26741655       7.05537458      14.00640976        1       1.09549400      -0.82570700       0.49725100 
H       0.53613563       6.68079397      22.31815457        1       1.30489000       1.20776800       0.56994500 
H      -0.19201790       4.12979561      29.04849101        1      -0.25481000       1.81073700       1.92970600 
H       0.25683815      18.72849788       4.54555048        1       1.74873500       1.00667200       2.79606600 
H       0.33809064      20.68124715      13.56613046        1      -0.54598300       0.54919900      -0.06138700 
H       0.41810909      21.03426399      21.50200421        1      -0.13049500      -0.68089500       0.49755000 
H      -0.00822014      21.65253356      30.69024892        1       0.65261400      -1.20481000      -0.59624200 
H       9.67453263       5.23316843       7.34336264        1      -0.00800500       0.48210800       0.15529800 
H       8.24281447       5.91710948      13.56014165        1      -0.06304400      -1.47991000      -0.51968300 
H       8.40898728       5.02591103      20.23924827        1      -1.43936400      -1.72990400      -2.30364900 
H       7.69586371       5.64942194      30.89190231        1       1.53627400      -0.60745300      -1.25756900 
H       7.79148936      20.46857614       6.63580581        1      -0.33049000      -0.02111100       0.08004400 
H       9.95630521      20.53189743      15.22662647        1      -0.55269300       0.20420500      -1.22533300 
H       8.31644217      20.92961936      23.24768346        1       0.61486400      -0.92779900      -0.93684000 
H      10.78797109      21.10054191      29.48491510        1      -0.44861400       0.26123300       0.65919000 
H       8.52902050      10.65876576       3.14196214        1       0.71372400      -1.17179500      -1.66158900 
H       8.58040948      10.26657127      10.58510885        1      -0.48112600      -1.02175100       1.25651800 
H       8.43837529      11.15749672      17.06204529        1       0.79953400       0.40053000      -0.49453100 
H       7.92035218       9.23856991      25.93362311        1       0.26548500       2.00154600       0.16102800 