768
Lattice="17.827540627 -0.199421025941 -0.315040354786 0.202968279068 30.3932384997 -0.0893160356242 -0.796186194129 0.155996879457 32.954699522" Properties=species:S:1:pos:R:3:Z:I:1:forces:R:3 energy=-99808.8925919 stress="2041.763365 291.121454 5139.726215 291.121454 3769.213485 -756.364093 5139.726215 -756.364093 -770.74611" pbc="T T T"
I       2.40934652       0.77514336       6.68733582       53      -0.05474400       0.04185700       0.24070100 
I       1.84062933       1.93670170      15.08115631       53       0.10084200       0.09082300       0.05242300 
I       2.04294462       2.40020166      23.47798379       53       0.03240900      -0.21303500       0.39907500 
I       2.06354977       0.89138521      31.88841737       53      -0.66283100      -0.43694700      -0.07237400 
I       2.22613339      15.71073433       5.67244264       53       0.66163300       0.55359300      -0.21492100 
I       2.01941272      16.68845397      14.84945254       53       0.17849600      -0.19390100       0.12531800 
I       1.98942101      16.49328193      23.02376275       53      -0.26252200      -0.29096200      -0.06547000 
I       1.78603230      16.46572141      31.06814581       53      -0.35578900      -0.13078200      -0.12150500 
I      11.50838896       1.03035872       5.29768697       53      -0.03472100       0.03774400       0.10302200 
I      10.78333773       0.98578804      13.56519661       53       1.01408800       0.47031700       0.39968600 
I      11.23653613       1.18940118      21.90201631       53      -0.43755700      -0.10177900       0.00844600 
I      10.47049905       1.18915035      30.61396945       53       0.12339900      -0.17003600      -0.34897800 
I      11.68762121      16.40538257       5.74470890       53      -0.15928600      -0.20662600       0.16443400 
I      11.05738817      16.78896930      13.64618427       53      -0.00148100      -0.30748800       0.12708000 
I      10.92171615      16.20597373      22.73190395       53      -0.01571300       0.41379400       0.03280600 
I      10.45678125      16.33063637      31.01223265       53      -0.69472800      -0.08300500      -0.07991300 
I       6.62341723       8.20212360       5.14690282       53       0.26143000       0.19792600       0.56571200 
I       6.24192249       9.68998556      13.17072846       53       0.40908200      -0.14534100      -0.01264700 
I       5.78465079       9.28635934      22.55948896       53      -0.00847200      -0.34410500      -0.19169100 
I       5.98895450       8.81550896      30.23562185       53       0.13338000       0.06237800      -0.15155700 
I       7.01895575      23.54399439       7.40107402       53       0.30129400       0.37672200      -0.75688100 
I       6.02864148      24.16075030      14.65479741       53       0.02037500       0.14991900       0.15744500 
I       5.84698211      24.50007507      23.38389679       53      -0.02764500       0.08827900      -0.54984100 
I       6.36998818      24.53673273      30.86525166       53      -0.25917500      -0.62256000       0.46998600 
I      15.20565850       8.49326138       6.42517523       53       0.73424000       0.93245900       0.43652000 
I      15.45003713       9.83752509      14.39199094       53       0.55041800      -0.58926700       0.24717400 
I      14.40363300       9.13572244      23.70638505       53      -0.00194100      -0.67141100      -0.03776500 
I      14.53173017       8.81199827      30.80995087       53       0.22180400      -0.04881000       0.30804600 
I      15.54090692      24.46972996       5.02382339       53      -0.00318100      -0.21203500       0.36394100 
I      15.69376276      23.51242759      13.35082695       53       0.33221000      -0.08985600       1.02960300 
I      15.10161116      23.60477905      21.90343805       53       0.36192300       0.01740600       0.01368900 
I      15.16453352      23.09780925      30.17534596       53       0.40194700       0.03496400       0.07617000 
I       6.16474105      13.96461244       2.27662360       53      -0.33855800      -0.29205100      -0.66175700 
I       7.12450608      13.25556701       9.68855468       53      -0.60191900      -0.37290800       0.12911000 
I       6.84767816      13.80726186      18.23589415       53       0.10230300       0.22498700      -0.09479100 
I       5.91647496      13.81089035      26.66666477       53      -0.08933000      -0.04625400      -0.28141400 
I       7.17333387      28.43020812       1.28629410       53      -0.48402000       0.26425200       0.04650200 
I       6.94132950      28.76709663       9.31472315       53      -0.01009500      -0.14339100      -0.07414000 
I       6.41323867      28.78161772      17.74983821       53      -0.09108500      -0.02975100       0.34721300 
I       6.49476862      29.36179316      25.76758285       53       0.08944600       0.15801100       0.13617000 
I      15.41082642      13.70407772       1.43203919       53      -0.09372600      -0.41139700      -0.15372800 
I      16.11006790      13.18904662      10.17757292       53      -0.23903700       0.06904900      -0.19282000 
I      15.57379391      13.51114391      18.70370504       53       0.07526100      -0.16627300      -0.14766500 
I      14.63161586      14.35688501      26.49976006       53       0.26824400      -0.56281800       0.46081700 
I      15.69021246      28.78084388       2.44692831       53      -0.03486500       0.32031200      -0.16362100 
I      15.70056378      29.24962562      10.94378569       53      -0.41652800      -0.09114800      -0.33128200 
I      15.72775668      29.73538604      19.40249461       53      -0.06445300      -0.10624100      -0.47547000 
I      15.10820805      29.28328441      26.17227538       53       0.33263400       0.18701300       0.39564200 
I       2.07170144       5.95566942       0.75529783       53      -0.30804900       0.04049500       0.46951600 
I       2.11664990       6.07252262       9.86027301       53      -0.51292200      -0.06719000      -0.09737600 
I       2.48005395       6.51037633      17.62978507       53      -0.30774900      -0.41506500       0.07170200 
I       1.27962003       6.30381510      26.33102029       53      -0.26248700      -0.02759500      -0.19260800 
I       2.68050066      21.01326235       2.15978462       53      -0.37022100      -0.03705200      -0.15827500 
I       2.14009853      20.56327607      10.43272228       53       0.50293400       0.58794400       0.40525500 
I       1.54014358      21.96368347      18.91160068       53      -0.48753400       0.22894700       0.31489600 
I       1.65202677      21.40396694      27.29662159       53      -0.23634900       0.15502200      -0.19033300 
I      11.17730523       5.73589815       2.50209709       53       0.13063500       0.13293600      -0.46372300 
I      10.95028306       6.72485871      11.40017489       53      -0.33165500      -0.74899500      -0.26437000 
I      11.23203530       6.71967848      18.32303695       53       0.02373900       0.16049800       0.69577900 
I      10.13137536       5.76334290      27.49969548       53      -0.37407100       0.21887600      -0.18116700 
I      10.98857065      21.38805152       1.62222801       53       0.48100500      -0.03616900      -0.34308300 
I      10.99207119      20.80570792       9.19856356       53       0.43262200       0.61090600       0.02758900 
I      10.55018175      21.25379820      17.80583566       53       0.37227700       0.29959900      -0.07166500 
I      10.21389749      22.45035685      26.31328707       53       0.03877100      -0.43118900      -0.39416100 
I       7.13462687       1.47772899       5.33114164       53       0.00770900      -0.10916400       0.13378800 
I       6.72519993       1.40079228      13.94635419       53      -0.15001400      -0.13822100      -0.19402800 
I       6.06094454       0.92411682      22.00172733       53       0.55552300       0.39634600      -0.35635000 
I       5.91133942       0.78544085      30.39737273       53       0.05666700       0.10732100      -0.20478500 
I       6.56826775      15.81390426       6.21105337       53      -0.19162300      -0.01351300      -0.20695700 
I       6.93998189      16.17182443      13.62385678       53      -0.21183300       0.40063500      -0.35438300 
I       6.52980447      16.79418812      22.69050579       53      -0.42643200       0.35013000      -0.43217900 
I       5.84087064      16.50744962      30.34376991       53       0.03171000       0.10923500       0.14737400 
I      15.56210615       1.18009485       6.77856817       53       0.12997700      -0.43340300      -0.00775500 
I      15.22036950       1.51543061      14.96866584       53       0.41660800      -0.42054400      -0.64192400 
I      15.41078377       1.54494603      23.24744179       53       0.34100000       0.07448600       0.11197600 
I      14.77166584       1.27112307      31.58550755       53       0.42732800      -0.30970000      -0.24799000 
I      15.79977211      15.84492876       6.01271490       53      -0.36052000       0.25537800      -0.03454000 
I      15.87743492      15.80278926      14.34820120       53      -0.13308100       0.22118000       0.21459300 
I      14.87502567      15.60745473      22.86226880       53       0.17299200       0.32763500      -0.45916200 
I      14.75979021      16.56394976      30.87930865       53       0.41175800      -0.16114500      -0.24465900 
I       1.80440226       8.18601726       5.17900784       53      -0.10822700      -0.03975200       0.12454100 
I       2.08392438       9.01197378      14.14461852       53      -0.00971300      -0.12555300      -0.38399500 
I       1.66308489       8.17819564      21.49631738       53      -0.17550300       0.04399900       0.32397100 
I       1.33879812       8.96101438      30.30818465       53      -0.07978700       0.18650600      -0.17394200 
I       1.90569548      23.19522314       6.43423073       53       0.37681300       0.01443200      -0.30687800 
I       1.66452390      24.25321652      14.52682718       53      -0.06987500      -0.02988800       0.13837900 
I       1.61445818      24.64051502      22.99994345       53      -0.79288500       0.35323800      -0.06164700 
I       1.78181074      23.96329534      31.20039650       53      -0.24756600       0.07380100      -0.20824400 
I      11.06485030       8.76783075       6.59517122       53      -0.10621800      -0.03280800       0.25217800 
I      11.30215270       9.43849720      14.78137128       53       0.01457100       0.09445300      -0.00712300 
I      10.11388079       9.29309435      23.03744197       53       0.06743800      -0.69017700       0.01596900 
I      10.38881271       8.18738112      31.72513811       53      -0.43731700       0.48363700      -0.34343100 
I      11.28089356      24.05174107       5.31586093       53       0.29546500       0.37320500      -0.07055200 
I      11.31489458      23.00611585      13.53157336       53      -0.62051100       0.17342600      -0.22160300 
I      10.94998653      24.62789500      21.63362035       53      -0.09586300      -0.51388500      -0.16031400 
I      10.37543714      24.03465982      30.62322196       53       0.49478400      -0.41098800      -0.29538100 
I       6.83077260       5.92116063       1.36946820       53      -0.36257300      -0.03607100      -0.06220800 
I       6.42773234       6.35883459       9.72975380       53      -0.04942200       0.12942600      -0.21708100 
I       6.48981181       6.27192537      17.68373622       53       0.77702600       0.22603500       0.48057500 
I       5.72755555       6.21033742      26.23376889       53       0.49433600      -0.33536100       0.11541100 
I       7.11359419      21.59398617       2.30686005       53      -0.05304900       0.19361800       0.11306300 
I       6.84637016      21.07287509      11.20292812       53      -0.41054300       0.25468900      -0.06279900 
I       5.88892968      21.35134309      18.86022898       53      -0.21425700       0.47351200       0.19587000 
I       5.89257239      21.34862045      26.43123298       53      -0.09139900       0.09051900       0.31093700 
I      15.69994126       6.41049267       2.95338425       53       0.45152600      -0.26591500      -0.20884500 
I      15.15119349       5.84697805      10.76201156       53       0.34610100      -0.20300100       0.05771000 
I      15.42133108       7.05801413      19.80507890       53      -0.04925500       0.18096200      -0.16169900 
I      14.52832915       5.96666357      27.01928590       53       0.32577700       0.09479100      -0.24031200 
I      15.49538469      20.76399800       1.35560619       53       0.93527800      -0.18949300      -0.06800400 
I      15.49421683      21.01284801       9.09857428       53       0.07970400       0.08399000       0.13211100 
I      15.39682934      21.06884444      17.83118029       53      -0.04795200       0.06604500       0.52355500 
I      14.80249028      21.37627237      25.91709962       53       0.52725900      -0.43086600       0.26245800 
I       2.08978197      13.08691559       2.23610185       53      -0.19137500       0.04442700      -0.08283400 
I       2.69660091      13.97161555      10.09193413       53       0.24573800      -0.22388100       0.53586100 
I       2.61899091      13.70295657      19.10797714       53      -0.54320400       0.29133500       0.35404500 
I       1.22687533      13.06215793      27.02448847       53      -0.00703200       0.14537600       0.11412100 
I       2.30238765      28.77507160       2.76556670       53       0.20431500      -0.10058500       0.14308800 
I       2.18128546      28.59516504      11.00502430       53      -0.31683300       0.25511400       0.09410500 
I       2.67233579      29.88387814      19.27767558       53      -0.31280500       0.31938400      -0.03034300 
I       1.24927187      28.33561538      27.49983258       53       0.46619500      -0.09711200      -0.02035500 
I      10.99993648      14.07647735       1.68077749       53      -0.09844300      -0.44174500      -0.13615000 
I      10.88766536      12.68461463       9.46738502       53       0.72395800       0.14186900       0.18713300 
I      11.07975425      14.73482031      18.35229239       53       0.49557500      -0.15628300       0.10275000 
I      10.62293446      13.83590189      26.34124771       53       0.05022300      -0.11488500       0.82904100 
I      11.82480333      28.52420271       1.08016650       53      -0.29659900       0.17599600       0.15626500 
I      11.47515974      28.58636037       9.46899058       53      -0.27115300       0.57762000       0.04307400 
I      11.57783510      28.81905327      18.13748809       53      -0.70459000       0.34304000      -0.08436500 
I      11.01826785      29.35220450      26.02659427       53       0.07752300       0.00700900       0.15217400 
I       0.61242264      12.42872394       6.76588316       53      -0.54938900      -0.84991100      -0.33310700 
I       0.53336246      12.36022123      15.02427840       53       0.22315700       0.54180500      -0.21776000 
I      -0.70861789      12.18078384      23.17509529       53       0.32446100       0.09263500      -0.20131600 
I      -1.29035522      12.50448465      30.79401819       53       0.08813500       0.20700400      -0.07618500 
I      -0.00121051      27.71838419       6.54912497       53       0.19721900       0.25530800       0.45575200 
I       0.36604139      28.32330916      15.59739183       53       0.08001500      -0.75656900      -0.77975700 
I      -0.08607446      28.28847235      22.87970751       53       0.12820000       0.08944300       0.35593500 
I      -1.09702941      27.28803628      31.26428260       53       0.22527600       0.39321500       0.03449800 
I       9.39876045      12.09210861       5.41829967       53      -0.22964900       0.22195900      -0.31267800 
I       9.09213682      12.73611835      14.52231009       53       0.20011200       0.03378500      -0.13886500 
I       8.07739800      12.79254943      22.33778716       53       0.10216900       0.00116900       0.19417700 
I       7.94619838      12.57991024      30.52526476       53      -0.02672400       0.28569000       0.18609700 
I       8.76677968      27.40329509       5.15089589       53       0.34384800       0.79047400       0.21570500 
I       8.75089067      27.81599713      13.94259164       53       0.14246500      -0.47710800      -0.29347000 
I       8.90042267      27.90548174      22.32316350       53      -0.21392500      -0.50813500      -0.40426200 
I       8.68825672      27.99393762      29.34131089       53       0.05671400      -1.36168700       0.48307100 
I       4.30742856       4.57800689       5.77647474       53      -0.01880300      -0.21723300       0.09193700 
I       4.70849767       5.10384629      13.61110272       53      -0.07322600       0.08492500       0.09836700 
I       4.94022988       4.97897141      22.13152044       53      -0.08295700      -0.27458700       0.13588600 
I       3.10313866       4.94007552      30.11766984       53       0.27973600      -0.00832600       0.11110900 
I       4.37520719      19.28307516       6.49368505       53       0.13808900       0.42688500      -0.27290700 
I       3.97238121      20.27043626      15.34106445       53       0.09023800       0.42562400      -0.12086200 
I       3.31902755      20.39385792      22.71414128       53      -0.19088700       0.51052400       0.15748300 
I       4.02273636      20.15739232      31.60958378       53       0.18325200       0.05405300      -0.10640700 
I      13.51117437       4.93726351       6.77011488       53      -0.34708000      -0.48696700      -0.10384500 
I      13.41766318       5.42309806      15.23980373       53       0.24999900      -0.09005600      -0.20298100 
I      12.37451484       5.22793719      22.77591304       53       0.10139600      -0.05778500      -0.00067500 
I      12.17413922       4.56807499      31.10110286       53       0.36803500       0.40055500       0.33119100 
I      13.43607680      20.36606789       5.69469294       53       0.30544000       0.17677800      -0.26197200 
I      13.71564767      19.40617287      13.81916694       53       0.22015100       0.05718300       0.16611900 
I      12.08362790      20.36880069      22.08320041       53       0.02383900      -0.05024400      -0.02668300 
I      12.29316464      19.76288761      29.28093853       53       0.12630400       0.63285000       0.12613500 
I       9.49093419       2.27845258       0.99288864       53      -0.11994400      -0.22971700       0.10951500 
I       8.74637967       2.51077074       9.61542825       53       0.00533100      -0.24228500      -0.10668100 
I       8.58184115       2.41408398      17.95134210       53       0.11417100       0.23613800       0.33877800 
I       8.75114252       2.78643994      25.85863240       53      -0.12498400       0.29240800      -0.23795300 
I       9.08004692      17.92223797       1.90355372       53      -0.42713200      -0.67615300      -0.31995900 
I       9.05467283      17.17592353       9.39109623       53      -0.18299300      -0.08124000       0.51248100 
I       8.52145864      17.81554415      18.42716858       53      -0.18974100       0.49235600       0.21801400 
I       8.24488562      17.94575464      26.83080825       53       0.06159900      -0.05965800      -0.37954900 
I      18.09011251       1.82769856       2.12792637       53       0.12929300       0.99685400      -0.68934900 
I      17.94944610       2.41378744      10.31310582       53       0.06465000      -0.06126700       0.41611200 
I      17.65875617       3.13031328      18.69044321       53      -0.02870600      -0.09576600       0.13164300 
I      18.21467664       2.20824581      27.75031658       53      -0.16626400      -0.11623700      -0.27652800 
I      17.89249913      17.04220945       1.74694143       53       0.03900500       0.27630800       0.04760200 
I      17.68235307      17.27571884      10.45963692       53      -0.08950100      -0.17088100      -0.01937400 
I      17.77776534      17.11182925      18.64426189       53       0.00396100       1.12684400       0.88969800 
I      17.53705177      17.69119937      26.72354979       53       0.04855700      -0.31969200      -0.13681200 
I       4.73688077       9.64799433       1.72526084       53      -0.55884200      -0.06079500      -0.17031700 
I       3.43851707       9.93848623       9.31904424       53       0.05634700       0.14683100       0.09343300 
I       4.46412108      10.30952404      17.99661248       53      -0.36105900      -0.30712300      -0.44461100 
I       4.04046552       9.96037907      26.30301395       53      -0.02066800       0.08796500       0.02228200 
I       4.70725060      24.85511621       2.80375070       53      -0.26434300       0.57238700      -0.23347100 
I       3.82045458      24.76175125      10.21819522       53       0.32404700      -0.09475600       0.13870500 
I       4.07294934      26.10047422      19.35644938       53      -0.10796300      -0.40298500      -0.20728900 
I       4.06129814      25.21067325      27.58421313       53      -0.23069700       0.18428200      -0.52473600 
I      13.30570078       9.94673743       2.51408849       53       0.00752300      -0.34602800      -0.33975300 
I      13.35178562      10.06026680      10.64789624       53       0.18157200       0.51809100      -0.31852000 
I      12.59477560      10.72157917      18.60160447       53       0.10163300       0.44096200       0.36188800 
I      11.94245779       9.98340829      27.37032686       53       0.64481100       0.01249900      -0.13830300 
I      14.17293765      24.57182037       0.59457263       53      -0.18696100       0.15191500       0.17356100 
I      13.33464344      25.15394055      10.56889293       53       0.21158100      -0.27613700      -0.54937200 
I      13.20545457      24.91651528      17.35956928       53      -0.12931400       0.13438200      -0.03897700 
I      13.34824852      25.54790602      25.80745263       53      -0.03958800      -0.05248400       0.13974200 
H       0.50935529       9.71490266       1.03990371        1      -1.47354600       1.12393200       0.81054200 
H      -0.77196880       9.53717542       9.82073632        1      -0.16650000       0.95870900       1.17944600 
H       1.43040418      10.47833794      18.00162819        1      -0.60795400      -0.08716100       1.17289900 
H      -1.30321794       8.51906198      27.49983156        1      -0.44429200       1.89534000      -0.97184000 
H      -1.05915718      26.40475705       2.72204100        1       0.29252100      -0.37091700      -0.46168100 
H       0.66541614      24.55534540      11.29959458        1       0.46079200      -1.52907000      -1.37353100 
H      -0.20817390      25.27774507      17.83185968        1      -1.98276800      -0.13430500      -0.51836200 
H       0.18280083      25.39503901      25.83925199        1      -0.65070700       0.29734700       1.55629600 
H       7.31417495      10.53067541       1.83484384        1      -3.52999600       0.02751900       1.30321900 
H      10.27006148       9.30646992      10.32585684        1       0.78182600       0.38502400       0.01350500 
H       8.83000771      11.40837227      19.54062422        1      -0.34299200      -0.03695100       0.33473500 
H       8.72679819       9.89467009      25.60860741        1      -0.39082800      -0.56948200       0.84637500 
H      10.29013042      25.87753348       2.46883537        1      -0.19367300       0.16107000      -0.15583700 
H       9.85943926      26.09130499       9.16113105        1       0.81366800       1.24764500      -0.56692900 
H       9.93380057      24.85154967      18.42210006        1       0.81838800      -0.08062900       0.79809300 
H       8.93800852      26.62185138      25.73940387        1       1.69568700       1.70540600      -0.78689500 
H       5.05906235       2.41972424       3.26352264        1       0.08533100      -0.08859700      -3.06451200 
H       3.48000968       1.45191518      10.81837765        1      -0.69862100      -0.64031600      -0.27536300 
H       4.28680920       2.98172978      16.76745424        1      -0.17608400      -0.79814700       0.39085100 
H       3.77010247       3.38543319      27.05535963        1       1.52080600      -1.41124500       0.04826500 
H       3.45401714      17.77343715       2.55516472        1       1.06392800       0.00169900      -0.67518800 
H       3.18580905      17.18469468      10.36074137        1      -2.61097200      -1.04983600      -1.00549900 
H       5.62273641      17.32013821      18.16491558        1      -2.20707300       0.82050500      -0.51773200 
H       5.05537394      17.20416243      25.65620844        1      -0.66253100      -1.09777400       0.79349400 
H      15.14287527       2.95960134       2.52562595        1      -1.05752900      -0.75290500      -0.86372500 
H      11.56540499       2.76594244      10.06245831        1       2.41482100      -0.41349700       0.21818000 
H      13.71722885       2.01019372      19.69781334        1      -0.81394700       1.41248900      -0.33419800 
H      12.64706839       3.47119384      28.66723937        1       1.14499700      -0.68229100      -1.99617100 
H      14.47297961      18.23584642       1.53341365        1      -0.69716600      -0.23287200      -0.46501700 
H      14.16854344      16.17744540       8.76709043        1       0.70868900       0.65829200       0.37685000 
H      14.52417867      18.70625403      19.49906764        1      -0.09446600       0.70200900      -0.44802800 
H      12.12860378      17.77429222      27.20462048        1       0.19603600      -0.39479200      -1.28730400 
H       5.11721476      11.06833662       6.35705843        1       1.31977200       0.35635100       0.12575200 
H       4.90826905      13.85172692      13.64659353        1      -0.27710000       1.89901900      -3.22702500 
H       5.45485171      12.78929465      23.76781357        1       0.49385100       0.19320900       0.21200600 
H       4.19713772      12.59023820      31.37561740        1       1.19498600      -0.39656500       0.96756900 
H       5.88528188      27.57907657       6.37589654        1      -0.24032800      -0.60489200      -0.36212100 
H       5.52987617      27.81510346      12.98965098        1       0.33688300      -1.28124800      -1.11225500 
H       3.65101815      28.56791628      24.16964331        1       0.85367300      -0.02549000      -2.64228700 
H       4.94243257      28.05132533      31.39285301        1      -2.09023500       0.20313700      -0.46957900 
H      15.08904293      11.76619394       5.03753206        1       1.97125100      -0.79078500      -1.31984700 
H      14.86428642      12.28657485      14.03454197        1      -2.03293700       0.59491600      -0.49398900 
H      13.15749607      11.64198625      22.87259168        1       0.33116700      -0.25200700      -0.86053900 
H      13.34420772      12.72036441      29.72618633        1      -1.09715600      -0.53740700       1.07455900 
H      13.98669721      27.76170679       7.04100092        1       0.49950100      -0.39596600      -1.16892800 
H      13.03526055      26.40877754      13.72020335        1      -0.48664600      -0.52012800       0.32687900 
H      12.40716013      28.36821700      20.84093774        1       0.81594800      -0.94521700       1.72413700 
H      12.14140354      26.37627138      30.19077494        1       0.80910600       1.31734100      -0.00303000 
H       0.49803312       4.50797175       6.38564565        1       1.16990000      -0.44631800       1.10902500 
H      -0.34674323       6.72013649      14.22095606        1       0.93011700      -0.54916400      -0.01513400 
H      -1.05688340       4.77561722      22.04553332        1      -0.91569000      -2.77274500      -2.92507300 
H      -2.53118395       5.08616893      30.50650687        1      -2.50517100      -1.81324600      -3.15117300 
H      -0.02185222      19.53301890       7.20547140        1       0.05038000       0.53894100       0.64560500 
H      -1.35226306      19.83599372      15.36139439        1       0.01413600       0.18240900       0.55975800 
H      -1.06774655      19.38597394      22.45377005        1       0.92553500      -2.79396200      -3.53939800 
H       0.26300247      19.33237213      29.66804002        1      -1.22024400      -0.33287600       1.13693900 
H       8.98547144       4.70040693       4.49943518        1      -1.35631000      -0.25131400      -2.14814500 
H       8.25093819       4.95811035      15.35612276        1      -0.15985000       1.55010300      -1.28741000 
H       9.43137527       6.44818109      21.41101067        1      -0.57260100       0.49397400      -0.28215500 
H       7.83180581       3.46372765      29.83178135        1      -0.82970300       0.74177100       0.65219200 
H       8.65623699      19.61436098       5.11706547        1       1.90301700      -1.01627800       1.22939500 
H       8.06099716      21.11432605      15.38406715        1       0.20744300       2.27868900      -0.67985900 
H       9.44898257      21.48868160      23.39883425        1      -0.49932100      -0.80922000       1.02424800 
H       7.65229124      19.24286924      29.22823446        1      -0.28935700       0.98927500       0.85784300 
H       8.17941123      10.72185438       0.25359559        1      -0.08172600       0.95232900      -0.06467800 
H       8.61477486       8.75093027      10.73685176        1       0.46019300      -0.67314300       0.44202800 
H       9.29490707      10.59146516      18.01179976        1      -1.20446700       0.11606200       0.18406700 
H       8.70908223      11.09179033      26.82843597        1      -0.21607700       0.24658700       0.70398700 