768
Lattice="17.2874728675 -0.151536574867 -0.365998371708 0.253427636632 30.1443354667 0.918715576022 -0.886388103799 1.21882292081 32.003986366" Properties=species:S:1:pos:R:3:Z:I:1:forces:R:3 energy=-99806.6925945 stress="677.504399 2334.326956 -495.269784 2334.326956 -4268.933056 -1078.324363 -495.269784 -1078.324363 -886.402401" pbc="T T T"
I       2.60080476       0.77902636       6.85042857       53      -0.58907600       0.01144200       0.08875700 
I       2.18034938       0.51170444      14.84146290       53       0.26571700       1.16289600      -0.23118100 
I       1.11462821       1.50155077      22.44084643       53       0.46595500       0.60713100      -0.17565300 
I       1.42266055       2.17412931      31.01282763       53       0.28651000       0.19166400      -0.60079400 
I       2.14920743      15.89380326       6.98886089       53       0.36131900       0.16826000      -0.00970700 
I       1.78228324      17.22588979      14.76922394       53       0.09955200      -0.18630900      -0.04477000 
I       1.21308956      17.88314666      22.18687658       53      -0.22309100      -0.44148100       0.19673600 
I       0.68562829      17.43199440      30.80156458       53       0.65193300       0.42030500      -0.59842500 
I      10.74303468       1.06216557       4.99986144       53       0.26127800       0.28572700       0.66161100 
I      11.02657436       1.93637921      12.83636266       53      -0.25710500      -0.09685300      -0.31309900 
I      10.01758016       1.96600554      21.77496474       53      -0.42572600      -0.08657800      -0.05063300 
I      10.17154429       2.22181216      29.47449375       53      -0.25541500       0.11600500      -0.09517500 
I      10.79677899      15.68473780       6.11224051       53       0.16202000       0.06452700       0.12235900 
I      10.84570189      16.78902236      14.60340154       53       0.06125000      -0.70064000      -0.59434200 
I      10.10562055      17.11224950      22.22431095       53      -0.23642100      -0.22225800      -0.01405800 
I       9.74068281      16.71919807      30.02783048       53      -0.11169800      -0.21972900       0.32126100 
I       6.80588499       8.08924193       5.16019135       53      -0.36528200       0.47943100      -0.14700200 
I       7.27356230       9.17236639      13.17119431       53      -0.17620600      -0.07411200       0.16771400 
I       5.91418283       9.55523674      21.73894289       53       0.25674800       0.19113200       0.22659700 
I       5.81716076       9.54083593      29.53947779       53      -0.53724200      -0.30873700       0.11316600 
I       6.42460559      24.55813082       7.00822287       53       0.39699800      -0.65607200       0.37798100 
I       7.07786775      24.20574026      15.53982571       53      -0.53944500      -0.19543200      -0.13489400 
I       6.81387641      23.84819721      23.19592927       53      -0.40524600       0.08986900      -0.02253600 
I       6.68923429      24.28520936      31.33204618       53      -0.08680900       0.05609000       0.14760200 
I      14.72747469       8.49982055       6.28272969       53       0.82797400       0.33338500      -0.34084300 
I      15.30901828       8.66958711      14.41944035       53       0.29451500      -0.18917500       0.24481200 
I      15.54084967       9.12174450      22.23134086       53      -0.60602800      -0.22566800       0.07934400 
I      14.99051839       9.22384372      30.83542849       53       0.33057700       0.14569300      -0.21223900 
I      14.90591167      23.50870473       5.77750700       53       0.36286800      -0.21322800       0.27840800 
I      14.57796620      24.76928979      14.14277199       53       0.40735500      -0.17029100      -0.12321300 
I      14.99676323      24.71465038      21.89008000       53      -0.54529100      -0.24221500       0.00022400 
I      15.12694938      25.34678614      29.90114541       53      -0.02193700      -0.05745900      -0.06356800 
I       5.92533136      13.25722545       2.60519102       53       0.59304200       0.02114900      -0.36774000 
I       6.46728761      14.03026271      10.35463120       53       0.16200500       0.07125800       0.11214300 
I       5.71176862      14.73698072      17.83322955       53       0.38996300      -0.00998700       0.25678300 
I       5.49340627      14.16989047      25.83674366       53       0.33179900       0.19626000       0.03652200 
I       6.74249290      28.97841331       2.21319626       53      -0.37245100      -0.22334200      -0.85773600 
I       6.46926911      29.01011927      10.15915075       53       0.62064700       0.29832200       0.13313400 
I       5.69934634      29.94993151      18.16712645       53       0.18844400       0.09024200       0.10597700 
I       5.95764594      29.06598286      26.07448980       53      -0.06604800       0.38412300       0.49903900 
I      14.61966391      13.96679825       2.49739412       53       0.31898500      -0.26068600       0.01265500 
I      14.66762728      14.49537963      10.83421138       53       0.26286400      -0.56977900      -0.26317700 
I      14.03041734      14.90049848      17.93487379       53       0.91826500       0.03772700      -0.19262800 
I      14.15331388      15.35061191      25.95154667       53      -1.53475500      -0.48920000      -0.50186700 
I      15.53311498      28.63733087       3.42790651       53      -0.40029600      -0.12436200      -0.08609500 
I      15.23719862      28.51787594      11.40452120       53       0.25233000       0.06682400      -0.14129300 
I      14.58174284      29.20818092      18.68565165       53       0.16628600       0.31505400       0.12458700 
I      14.61368075      29.15764923      27.20949106       53       0.13336700       0.62911500       0.26904100 
I       1.95621303       6.13709003       1.37806841       53      -0.05358500      -0.41881500       0.21592800 
I       2.63265346       6.60303960       9.69264312       53      -0.53423200      -0.45614800       0.34980300 
I       1.54209368       7.49259374      17.61882723       53       0.08723500      -0.01655500      -0.29272400 
I       1.13670422       7.24158375      25.63494898       53       0.45413000       0.24876600      -0.23025600 
I       2.45238169      21.87508544       3.01479823       53       0.06913500      -0.18554800      -0.02714100 
I       2.44502963      21.66043332      11.23227355       53      -0.48254800      -0.25611800      -0.28787500 
I       2.31669413      21.08064522      19.41920366       53      -0.00529700       0.57190600       0.01318500 
I       2.05689874      22.47526147      27.46509646       53      -0.14007200       0.04072200      -0.69716700 
I      10.79912329       5.73382085       2.21511333       53       0.10491100      -0.02473700      -0.46012300 
I      11.10741931       5.91486678      10.66088625       53      -0.05482600      -0.06403200       0.16522800 
I      10.46766088       7.06669443      18.44324369       53       0.21347700       0.16056900       0.05146600 
I      10.42810525       7.16214042      26.19155385       53       0.19544800       0.09972700       0.09318200 
I      11.45666366      21.28754778       1.27799826       53      -0.24419100       0.16144400       0.24323500 
I      10.56339631      22.18191838       9.96160653       53       0.34273400      -0.22167300      -0.35463500 
I      10.46564172      22.29155701      18.11248903       53      -0.49633000      -0.14462200       0.08431000 
I      10.72557093      22.32088398      26.44742490       53      -0.03701600      -0.24422100      -0.16660800 
I       6.29905153       1.39320174       5.08233500       53       0.18034700      -0.18096900       0.10480200 
I       6.76335365       1.69654650      12.70475705       53      -0.33824200       0.22834000       0.19343100 
I       5.73097796       2.64427680      21.45058973       53      -0.63510400       0.29888400       0.16561600 
I       5.14614541       1.83300822      28.81559141       53      -0.08021700       0.48286900       0.05942100 
I       6.22374070      16.29374185       6.36209570       53       0.27672900      -0.46045200       0.23692500 
I       6.35971473      16.61483683      14.36031755       53       0.09149000       0.43618500      -0.62138500 
I       5.53870419      16.84000209      21.93305840       53      -0.15597700       0.13966300       0.35171500 
I       5.24747443      16.36006606      30.16874190       53      -0.08080300      -0.01517800       0.11266300 
I      15.02757113       1.34605516       6.26497649       53       0.55796400      -0.16291500       0.16517400 
I      14.84685230       1.62830027      13.74424790       53      -0.05940500      -0.00117500       0.34455300 
I      13.82490352       1.62709293      21.99417757       53       0.27261000       0.38848800       0.04112700 
I      14.33507946       2.04539534      30.26045783       53       0.15009800      -0.17647500      -0.07071100 
I      14.85194036      16.16944568       6.54119681       53       0.65132400      -0.40863100       0.04631000 
I      14.69561706      17.75784240      13.84354289       53       0.78861900      -0.26480700       0.02143200 
I      13.88097230      17.59148175      22.26305773       53       0.40564400      -0.03023900       0.17092600 
I      13.62428446      16.93916624      30.16438934       53      -0.40840800       0.44977900      -0.14714400 
I       2.28980562       8.68785476       5.94732114       53      -0.17348800      -0.03595000      -0.32678100 
I       2.28779736       9.39652256      13.02025843       53      -0.16529700       0.13585500       0.10564000 
I       1.57077139      10.54739861      21.16190351       53       0.32289200       0.00857800       0.56365600 
I       1.32805118       9.63770634      29.63484745       53       0.49837600      -0.28583200      -0.17671600 
I       2.70362859      24.56781628       6.23087965       53      -0.51204300       0.01003300       0.15952900 
I       2.83727716      24.63916807      14.54156074       53      -0.85466000      -0.03658100       0.16544100 
I       2.00143660      24.32510400      23.65721206       53       0.37311600      -0.15745700      -0.06871700 
I       2.01005052      24.90184204      30.77124240       53      -0.46704500      -0.04789200       0.53835400 
I      10.61396765       8.17452567       6.69428072       53       0.02219200       0.40271900      -0.06773200 
I      11.29172941       9.21638658      14.68239881       53       0.01667700      -0.15975300       0.01603300 
I      10.93039089      10.04066030      22.63294574       53      -0.00156700      -0.55387500       0.15628200 
I      10.69659188       9.49484316      30.32964772       53      -0.34614200       0.09876500       0.15834100 
I      10.95858982      23.11681900       5.09277083       53      -0.40038400       0.03649300       0.61390200 
I      10.42510773      25.16464884      13.41492361       53      -0.05894900      -0.14652200       0.02159200 
I      10.18310914      24.91013182      21.96899301       53       0.68110600      -0.24554200      -0.20800100 
I      10.53449458      24.97758505      29.99275230       53      -0.17790700       0.16640000      -0.08314400 
I       6.43321852       5.71874401       2.08401424       53      -0.21857500       0.06719800      -0.43653700 
I       7.07757731       6.40914712       9.23633241       53      -0.19677400       0.12294300       0.26850200 
I       5.72262275       7.04808777      17.71963188       53       0.22638200      -0.01460300       0.27877200 
I       5.74051968       7.25158838      25.45575369       53      -0.08510300       0.16712600      -0.14573400 
I       7.13543033      20.96388548       3.10514327       53      -0.59804300       0.02478100       0.02826300 
I       6.83954371      22.01288137      10.18971678       53      -0.21259700      -0.71608300       0.20235900 
I       6.22990624      22.07903805      19.10185361       53       0.22000000      -0.24757700      -0.03670300 
I       6.29963042      21.64597799      27.80116320       53       0.25303200      -0.20255900      -0.21948000 
I      15.62260458       6.09109725       2.88806855       53      -0.22513500      -0.02164200      -0.11770000 
I      15.40603440       6.09204588      10.54013477       53      -0.21938800      -0.22430400       0.40567000 
I      14.80647691       6.05879555      19.06823851       53      -0.39107500       0.45763700      -0.00416600 
I      14.84365851       6.99237584      26.73887868       53       0.72430700      -0.68376900      -0.77095800 
I      16.08436316      21.53902564       1.84917542       53      -0.29651800       0.18854000       0.05205900 
I      14.65426133      21.28886316      11.19034488       53       0.73220400      -0.56392500      -0.22215700 
I      14.51123261      21.66876176      18.08272194       53      -0.02769500       0.11020200      -0.12930600 
I      15.18536147      22.67367203      25.78783265       53       0.07125700      -0.24244500       0.03003000 
I       1.99210799      13.78242669       2.66075030       53      -0.29176700       0.16077200       0.01135300 
I       2.39254122      14.83743349      10.92208326       53      -0.25288600      -0.62417200       0.16832800 
I       1.86360894      14.32324400      18.81031260       53      -0.39329800       0.14627100      -0.13783300 
I       0.71358239      14.50812010      26.77133898       53       0.13741600       0.37817100      -0.19492100 
I       2.85463782      28.61831978       3.79325165       53      -0.46771400       0.11593100      -0.11858500 
I       2.39859376      28.89012114      11.98037902       53      -0.20979200      -0.05422100      -0.33013600 
I       1.30767217      28.92450841      19.58424397       53      -0.19309400       0.26579000       0.07793600 
I       1.61804485      29.65582913      27.42579856       53       0.00466400       0.08946900      -0.03403800 
I      10.75981448      13.43068242       2.61066765       53      -0.48915400      -0.31869700      -0.18279200 
I      10.75740377      13.96767848      10.25609451       53       0.21372800       0.24511000       0.11585000 
I      10.27059345      14.15427241      18.49081452       53      -0.05400000      -0.01682900      -0.64260300 
I       9.87269979      13.45120813      25.78027144       53      -0.17474800       0.42948000      -0.00948800 
I      11.23382980      28.98815427       2.38383809       53      -0.09061000      -0.33589400      -0.63496200 
I      11.35700190      29.09146975       9.84431153       53      -0.22613000      -0.11973100      -0.22183700 
I      10.16743161      30.01995801      18.72561667       53       0.27052600      -0.52907800      -0.18546300 
I       9.92528038      29.53084305      26.02350016       53       0.26739200       0.12960500       0.23627900 
I       0.39938846      12.33051053       6.70824538       53      -0.23567300       0.21632900      -0.12369100 
I      -0.50668974      13.08754116      14.68147200       53       0.39706400       0.06958700      -0.18165100 
I      -1.05012889      14.14025224      22.08134865       53      -0.29039600      -0.24203000       0.40862600 
I      -1.13896922      13.71461760      30.74855379       53      -0.26292000      -0.15171200       0.06494700 
I       0.23322507      27.75860112       7.97374702       53      -0.08043000      -0.78987100      -0.00462200 
I      -0.00788040      27.84773784      15.63592096       53      -0.36986600      -0.12609800      -0.15691800 
I      -0.82519954      28.33287394      23.32434605       53      -0.14407900       0.35416100       0.17548200 
I       0.20602333      28.38043487      31.20923886       53       0.15480000       0.43302000       0.21440700 
I       8.43559481      12.27170393       6.66367108       53      -0.00675300      -0.08086300       0.39481600 
I       8.39479418      12.92070076      14.30793025       53       0.29721100      -0.30650500       0.01525400 
I       8.23671737      13.17139157      21.43843707       53      -0.51486600      -0.03426700       0.65563900 
I       7.69286487      12.59314980      29.89297061       53       0.13019800       0.60835900       0.43181800 
I       8.77936749      27.52379700       6.30936741       53       0.30267000       0.18292200       0.15535200 
I       8.83801252      28.63735268      14.67626697       53       0.04980800      -0.20215000       0.46812200 
I       7.57202616      28.35129425      21.96979394       53      -0.04888900       0.64220200       0.27667200 
I       7.78490395      28.52528450      30.39668959       53      -0.15750500       0.08031400       0.01522700 
I       4.12992899       4.81926751       6.18369143       53      -0.38682600      -0.05721400      -0.05369500 
I       4.21972092       5.19027861      13.55941937       53       0.05558800       0.13015200       0.08273600 
I       3.45275305       6.31506410      21.49281677       53      -0.06698200      -0.38303700       0.47213500 
I       3.70344485       5.67362551      29.78549091       53      -0.14087600       0.17485700      -0.08913300 
I       4.02898457      20.40862474       6.95904424       53       0.36339300      -0.04376500       0.50366600 
I       4.41178554      20.66198200      15.09009985       53      -0.04361900       0.00427200      -0.11675500 
I       4.27031803      20.51153480      23.30526656       53      -0.11974100       0.17658100       0.11027000 
I       3.61428832      20.49597820      30.89500429       53      -0.23082200       0.07910000       0.10390300 
I      12.44902774       4.65431542       5.87026274       53       0.37534500      -0.51273400       0.66460500 
I      12.20223054       4.86025549      14.81242834       53       0.65426700       0.06102700       0.45966700 
I      12.63679135       5.98449084      22.63449308       53      -0.05276000      -0.56638200       0.57833500 
I      12.27989756       5.93808571      30.45230537       53       0.24440100      -0.68669300       0.17229700 
I      12.95401948      19.24565946       5.83319514       53      -0.08711600      -0.08552000       0.34639900 
I      12.30520206      20.83891328      14.49756136       53      -0.18194200      -0.36535600      -0.45418600 
I      12.14302447      21.11316301      22.19558566       53       0.10849800       0.08743800      -0.29586600 
I      12.78764396      21.34864316      30.27549105       53      -0.13722100      -0.43803700      -0.41424100 
I       8.93191910       2.23812211       1.56422025       53      -0.08685100       0.79025700      -0.87438700 
I       8.46276880       2.91631011       9.46449322       53      -0.09489100      -0.10184800      -0.70731800 
I       8.68272904       3.75165405      18.05292611       53      -0.17483200       0.12911200      -0.29685700 
I       7.72729874       3.36308999      25.66696322       53      -0.31962300      -0.06392200      -0.22233400 
I       8.81724792      17.02530840       2.29359713       53      -0.27714800      -0.58282800      -0.01526500 
I       8.66345725      18.14919880      10.38521210       53       0.05737700      -0.44092600      -0.10617700 
I       8.79374154      18.17864571      17.92055922       53      -0.49667500       0.34505100       0.00459900 
I       7.52654487      17.88203548      26.43460513       53       0.24165900       0.05670500      -0.45965800 
I      17.09653728       2.02797520       1.81601134       53       0.26229300       0.07941900       0.12645500 
I      17.07679862       2.54719824      10.40595390       53       0.06946500       0.23310000      -0.35671600 
I      16.52666262       3.18208866      17.73125820       53       0.08865800      -0.49986800       0.06044100 
I      16.01479065       3.36434986      26.24618730       53       0.00438100      -0.29076200      -0.21330100 
I      16.71936460      17.73332494       2.07781698       53       0.30480200      -0.44353400      -0.12862200 
I      17.16533761      17.65442779       9.47786313       53      -0.14113100       0.47313200       0.13636800 
I      17.14575061      18.35230489      17.92960334       53      -0.12521400      -0.18996000      -0.44789900 
I      16.35186945      18.91372523      26.33787449       53       0.05859700      -0.45020800      -0.13031300 
I       3.65157102       9.50662708       1.75682014       53       0.65966800      -0.00436200      -0.02614700 
I       4.60314637      10.32035891       9.79086657       53       0.17181800       0.06028900      -0.23527400 
I       3.96197740      10.98304582      17.28543883       53      -0.00050100       0.35021800       0.07582800 
I       3.46211437      11.08829125      26.26959456       53      -0.00907300      -0.31467700      -0.31871500 
I       5.43037697      24.86819126       2.76218440       53      -0.20026000       0.39602900      -0.45225000 
I       4.60468874      25.77237617      11.39370077       53       0.08643900      -0.00780200      -0.85507700 
I       3.59252851      25.70070024      19.38349505       53       0.07755200      -0.14978800      -0.14890900 
I       5.26698907      25.60447117      27.36818145       53      -0.50981400      -0.16010300       0.03412400 
I      13.17542792       9.86878041       2.30280084       53       0.05921300      -0.07430400      -0.21632400 
I      13.08606124       9.58740660      10.71805432       53      -0.94771400       0.30583100       0.00099500 
I      12.73579689      10.67675905      18.57322366       53       0.31631100      -0.03042800      -0.12955200 
I      13.82510970      10.78099639      26.85113618       53      -0.02330200       0.59801600      -0.28123600 
I      13.18384458      25.23338672       1.80862161       53       0.05681900      -0.17196900      -0.06552600 
I      13.65292351      25.08307037       9.64559962       53      -0.02649900      -0.51563100      -0.08114000 
I      12.41252911      26.31862947      17.60156668       53      -0.10216500      -0.69662100       0.29270600 
I      12.67129163      26.16997048      26.26773003       53      -0.13927200      -0.09380500      -0.39687100 
H       0.16046373      10.07536379       1.49197138        1      -0.09166100       0.29752600      -1.24753600 
H      -1.99993288       9.16381392      10.03963536        1       0.75292500       0.12169100      -0.80183600 
H       0.23474465      10.41260218      17.81844216        1      -0.80896400       0.10898500       0.65775300 
H      -1.28452858      10.97022605      24.78864880        1       1.32928600       0.47857800       0.15158400 
H      -0.68386982      26.23808685       2.53588615        1       0.64618000      -0.96350200       0.50174100 
H      -0.30176570      25.38321538       9.88262513        1       0.80657000       0.03450700      -0.06583300 
H       0.62593353      24.94274775      18.32516758        1       0.17355400      -0.82133300      -0.46293100 
H      -0.07887931      26.22520959      25.67456309        1       1.35506900       0.34953200      -0.63642700 
H       8.12180234       8.34742258       1.95813604        1       0.52173700       1.18963000      -0.68735200 
H       9.88067436       9.71879612      10.76480837        1       0.28483900      -1.17765200      -1.89766300 
H       7.23345058      11.37526857      17.61331987        1      -0.32602500      -0.55406300      -0.96590000 
H       8.15471960       9.56848473      25.91438490        1       0.02256100      -0.45677600      -1.05095500 
H      10.13369657      24.30673524       2.48931151        1       0.33568300       0.96728600      -0.45861100 
H       9.05614093      26.82868944      10.41990567        1       1.50072000      -1.41351500      -1.16267500 
H       7.21267805      26.96282966      18.99344809        1       1.48383500      -3.27524200      -0.54468700 
H       9.77869805      26.53618692      25.52922973        1      -1.53068200      -1.60045100      -0.02274600 
H       3.67169429       2.71073086       1.03996565        1       0.00039200       0.12525100       0.58188400 
H       3.90451989       1.72021643       9.26724340        1       1.07330300      -0.15328200      -1.31186800 
H       3.94262334       2.83431532      19.21439560        1      -1.63728400       0.88396100      -2.01693900 
H       3.09192501       2.75022305      25.84827481        1       0.80020000       0.77841600      -0.00220500 
H       3.37771184      19.02977721       2.74251711        1       0.27435300      -1.79039800      -0.45344100 
H       5.18621153      17.89231469      11.37692097        1       3.07752600       0.65943400       4.55070100 
H       4.37271958      17.71621705      17.28713089        1       0.27620700       0.51771600       1.28876500 
H       4.57331981      18.02138271      27.48976756        1       0.00305000       0.05868900      -0.82669600 
H      14.30681609       3.00990643       1.66322381        1       0.93158800       0.60546900      -0.85139000 
H      12.70646992       1.42890936       8.77743159        1      -0.17198900       0.84682600       0.86566800 
H      12.30638957       3.02088348      17.39377794        1      -0.32255000      -0.96401500       1.34284800 
H      11.88108303       3.99662439      26.79264281        1      -1.11754900      -0.95319300      -2.38405000 
H      12.22416779      18.70746697       1.56224470        1       0.55161700       0.11380400       0.37965500 
H      12.04458691      18.47396138       9.73817397        1      -0.84245800      -0.88353800       0.09554400 
H      12.17085169      18.73754134      16.73084025        1       0.39075900      -0.05915000      -0.96688600 
H      11.60446126      17.67843574      25.37658990        1       0.73185900       1.68027700       0.58689200 
H       5.69873078      11.34291929       5.85373770        1      -2.67451300       1.45753600       0.78087200 
H       4.99589943      14.03183681      14.94855502        1       0.50595400       0.43794900       0.95464000 
H       4.24928777      13.98346009      21.80303283        1      -0.31423200       0.15002800       0.05200100 
H       2.56133141      14.01798515      31.69352745        1      -0.25826100       0.66191900      -0.29235400 
H       6.31324814      27.32134215       7.09952347        1      -1.66524200       0.54888200      -0.09486200 
H       4.56188183      26.89251966      14.48100856        1       0.14742500       1.54878300       1.73915100 
H       2.94175537      28.28852961      23.35749625        1      -0.65194700      -0.32021800      -0.39839900 
H       4.94216206      27.33012458      30.59044824        1       1.75443100      -0.20033400      -2.19962100 
H      13.98058944      11.21760312       7.75525581        1       0.15793300       0.63042800      -0.31516300 
H      13.32427822      12.13083414      14.08925665        1       1.45803700       1.19172200       2.51849500 
H      13.01997394      14.66291094      21.87058518        1      -0.60412300      -1.95118100      -0.71258200 
H      12.40672735      13.13661473      28.85960764        1      -0.17205900       1.06472300       0.13629800 
H      13.26375082      27.17912526       5.09390977        1       0.30535000       0.31037600       0.18221800 
H      13.76523057      28.80154249      14.26480118        1       2.03477500       1.18006100      -1.07237500 
H      12.51197576      27.97978753      21.92851949        1      -0.49482100      -0.09924100       0.06237700 
H      12.63588238      27.42505215      30.35788334        1       1.11581000       1.56973900       0.74935000 
H      -0.81974373       5.13127475       5.96880736        1      -0.55160200      -0.97303300      -1.32158800 
H       0.69829342       5.72734901      14.15510308        1      -0.44259400      -0.25947700      -0.90630300 
H       0.73652574       4.84768551      22.63992807        1      -0.60514100       1.62033300       1.18625900 
H       0.19702084       4.79944657      30.41440611        1      -1.01201700       1.53833500      -0.25414600 
H       0.40810646      18.79816886       4.64772662        1       0.70700400       0.52613900      -0.76842500 
H       0.22775142      21.26239295      16.84115094        1       0.09872900      -0.17983300       0.23550400 
H       0.22650641      20.95913543      21.32233849        1      -1.62064800       0.89743500       3.43969500 
H      -0.83743349      20.14975814      31.22350287        1      -0.63215300       0.47435800      -0.77807000 
H       8.90268530       6.20340432       5.97420568        1       0.25016900      -2.51130100      -1.47295600 
H       7.45089305       5.41184267      13.56275887        1       1.52196900       0.20375500       0.19803300 
H       9.79821764       5.82287925      21.53597855        1       2.45601900      -0.12640300       0.20453600 
H       6.69724355       5.99592485      28.97764410        1       0.50617500      -0.20862200       0.48456100 
H       9.67484135      19.49129393       6.32133670        1      -1.91466700      -1.19174700      -0.40295700 
H       7.29495931      20.43252663      13.22190938        1       0.63670400      -0.28004500       1.43896600 
H       9.04612242      19.85290406      22.44164438        1      -0.31771900       0.76970300      -0.13142800 
H       7.18552785      19.47004164      31.37369235        1      -0.68418100       0.96509500      -0.03891000 
H       9.80138071       8.34630644       2.21630183        1      -0.31878600       1.67606200       1.06176500 
H      10.01519919      10.45593842       9.04273335        1      -0.31632200      -0.86284600       0.37782900 
H       7.81363221       9.91708179      16.57314606        1      -1.53315600      -0.94807300      -0.80359800 
H       8.36286717       9.39143251      27.67750539        1      -0.56994500       2.42525200      -1.87597500 