768
Lattice="17.4065927729 -0.110709950722 -0.535925152182 0.30858748712 29.5119144586 0.940732355981 -1.21991333503 1.22776728951 31.6105425719" Properties=species:S:1:pos:R:3:Z:I:1:forces:R:3 energy=-99800.9569015 stress="-1266.574373 -2.3986 -2656.882223 -2.3986 -3904.83847 -937.981194 -2656.882223 -937.981194 -1437.044016" pbc="T T T"
I       1.92218711       1.28432044       6.60426612       53      -0.11897700      -0.22804600      -0.22202700 
I       2.28870629       1.46943530      14.33583891       53      -0.56554500      -0.27991100      -0.24135700 
I       0.53867150       2.37449144      22.20856157       53       0.27459200      -0.53201400      -0.27521500 
I       1.25995524       2.38473785      29.72248058       53       0.14884300      -0.08646200       0.27006200 
I       1.62665965      16.66426441       6.73731343       53       0.47224400      -0.36141800       0.18260700 
I       1.47770067      17.28743514      14.25657792       53      -0.28254700      -0.43616600      -0.32431000 
I       0.83752344      17.79994662      22.22158065       53      -0.01378400       0.01485100      -0.07784100 
I       0.67683520      16.74728371      30.17390065       53       0.72520100       0.25895000       0.27894300 
I      10.35137162       0.90409682       5.17687131       53       0.56418300       0.44350000      -0.01660700 
I      10.98282429       1.56878841      12.25640599       53      -0.19289900      -0.21716700       0.28905100 
I       9.83529681       2.30776890      21.22053390       53      -0.15988700      -0.63569200      -0.17348900 
I       9.49318475       1.95468607      28.93036111       53      -0.01306400       0.43181100       0.00854100 
I      10.61979436      15.72749900       6.20262156       53       0.05943300      -0.05508700      -0.23093100 
I      10.93712200      15.92921772      14.49922281       53      -0.43263300      -0.21795500      -0.04830300 
I       9.98684128      17.03323063      21.66905262       53       0.12189300      -0.41660300       0.32899700 
I       9.38424331      17.08192106      29.21016408       53      -0.09478100      -0.34881200       0.47059500 
I       6.47803739       8.63906428       5.59886635       53      -0.28070100      -0.25587100       0.14519600 
I       6.68283784       8.78853509      13.72157310       53      -0.21703500       0.36870100      -0.15440100 
I       5.91108054       9.40558138      21.02750367       53       0.04158800       0.11605000       0.19984200 
I       5.23938512       9.67269090      29.43546124       53      -0.47175800      -0.37941100      -0.19736900 
I       7.07760239      23.53915464       6.77866661       53      -0.07553000      -0.01472900       0.10049200 
I       6.95151893      23.71923111      14.71503789       53      -0.02507700       0.08803000       0.61292000 
I       6.53247984      23.85893713      23.06209125       53      -0.41806400      -0.02231700       0.16314400 
I       6.53344891      23.85681473      30.58835079       53      -0.63304200       0.49946100       0.00566500 
I      15.11770710       8.46554316       6.31246480       53      -0.04955200       0.01181800      -0.21752400 
I      15.50607228       7.43392488      14.23991947       53      -0.29492900       0.84437500       0.02910800 
I      15.19746627       8.93662250      21.78821902       53      -0.07602100       0.25139500      -0.08864700 
I      14.80979620       9.23156501      30.07785349       53       0.10479200       0.33352500       0.61373400 
I      15.22237352      23.23351726       6.57309988       53       0.57694100       0.13084100      -0.09779600 
I      14.84019518      23.92063493      13.82958642       53       0.18596300       0.21189400       0.48610400 
I      14.25345526      24.42891038      21.53582299       53      -0.65689700      -0.41232200       0.17059600 
I      14.72916448      24.44421857      29.64347210       53      -0.40379600       0.01448600       0.20818400 
I       6.17457506      12.82388930       2.05761616       53      -0.00702700       0.24267100      -0.05269700 
I       6.70894327      13.77864003      10.54008296       53      -0.40416200      -0.11550300      -0.01233600 
I       5.88671827      13.89648152      18.08480358       53      -0.19916100       0.49376100      -0.05600700 
I       5.63452405      13.61952433      25.22405503       53       0.27593200       0.31902200       0.26178200 
I       6.30912960      28.44508304       2.25005462       53       0.12682200       0.04719100      -0.34554500 
I       6.66294752      28.16363342      10.39023095       53       0.03889500       0.00972600      -0.11025800 
I       5.37492043      30.16932243      17.97183279       53       0.24114900      -0.53536100       0.19044800 
I       5.49274632      29.27469501      25.86907859       53       0.17033800       0.03731400       0.18649600 
I      14.97073013      13.77266865       2.25370959       53       0.01409700      -0.22035600       0.15128500 
I      15.37834218      13.27068630       9.79881141       53      -0.17194100      -0.03777000       0.15104100 
I      14.11472513      14.75913254      17.41727887       53       0.24609500       0.13136300       0.02301500 
I      13.73645427      15.28369793      25.51564576       53      -0.01701100      -0.25328700       0.19146700 
I      16.03884064      28.00409656       2.38698601       53      -0.46389200      -0.17483800       0.39131300 
I      15.56815420      27.97773863      10.86189913       53       0.05061100      -0.05185900       0.14572900 
I      14.89964189      28.61818299      17.93903649       53      -0.11391700      -0.28235000       0.24028800 
I      15.00935840      28.43235156      27.00665409       53       0.18296200       0.06597200      -0.15880800 
I       2.29976091       5.44903969       1.76652361       53      -0.35431000       0.45827400       0.16428200 
I       2.36958467       6.19509322       9.79604849       53      -0.14200700       0.35415500       0.19758400 
I       1.02089319       7.79936774      17.25759382       53       0.24179600      -0.18287300      -0.00988400 
I       1.33736778       6.77611037      24.71330328       53       0.22554400       0.16861400       0.15824600 
I       2.73910367      21.34079125       2.81035082       53      -0.13329400       0.24751400      -0.25319200 
I       2.54985515      21.33847094      10.61542379       53      -0.17965500       0.09906600      -0.33042400 
I       1.92392637      21.20024582      19.24814719       53       0.52146700       0.00518400      -0.03929500 
I       1.55273831      21.79365615      26.52742150       53       0.44079100      -0.01969400       0.42640600 
I      11.00359106       5.93821354       1.53624754       53       0.27581800      -0.15510200       0.12942100 
I      11.09161950       5.45470398      10.13013208       53       0.00124400       0.14034400       0.24447000 
I      10.38015418       7.17544925      18.01138529       53       0.20896200      -0.33902900       0.04939800 
I      11.22942150       6.74152801      26.01907099       53      -0.47913700       0.08328200      -0.09429000 
I      11.24929622      20.37192953       1.55497087       53       0.02988600       0.37381700       0.00672200 
I      10.78035099      20.74887742       9.90747695       53       0.32442100       0.65225700      -0.38712200 
I       9.81055919      21.39393510      17.69211268       53       0.30131100       0.76636400       0.14242100 
I      10.74115433      21.37114050      25.52092105       53       0.37433500       0.41825800       0.34725100 
I       6.33791996       1.54125570       4.77891195       53      -0.33726600      -0.03092400       0.40489500 
I       6.33270316       2.18733412      12.75616552       53       0.37827400      -0.35009100       0.26902100 
I       5.21469040       2.17771166      21.63747789       53       0.07749300       0.08033500      -0.10557700 
I       5.04859720       1.79335925      28.52293819       53      -0.58989100       0.30521000      -0.08068300 
I       5.95754620      15.57327350       6.08040560       53       0.45082000      -0.33201600       0.20977000 
I       6.37926534      17.23029411      13.69731904       53      -0.02404200      -0.24174400       0.11096300 
I       5.86922528      17.03280459      21.31626909       53       0.16462400      -0.53974300       0.21407500 
I       4.90912712      15.55674666      29.58096218       53       0.04553700      -0.01853200       0.10126200 
I      15.11364168       1.01789824       5.68472462       53       0.19992900      -0.37541500       0.02749400 
I      15.16420785       1.55628896      13.39425545       53       0.16053500      -0.16470900      -0.03908600 
I      13.75954038       1.12539290      21.07863042       53       0.09451700       0.13849200       0.00426300 
I      14.16743320       1.61523944      29.69073719       53       0.43659700       0.28083900      -0.32496400 
I      14.57342006      14.91000432       6.18215116       53       0.05416100       0.37272500       0.33560700 
I      14.46621202      17.02865826      13.08475056       53       0.59432300      -0.18360400      -0.06390300 
I      14.02706521      17.18126832      21.89986392       53       0.06190800      -0.22648100      -0.42315700 
I      14.12293981      17.36467219      30.04437280       53      -0.59002100       0.34808000       0.02023100 
I       2.07287268       8.77485404       6.14775404       53      -0.04475400      -0.39916400      -0.13365700 
I       1.55124960       8.69999287      13.07426920       53      -0.30402500       0.38537000      -0.55675200 
I       1.53904556      10.17540931      20.69744845       53       0.15251900       0.05064600       0.48058800 
I       0.42978075       8.83214033      29.28020428       53       1.35524000      -0.08322800      -0.22854400 
I       2.45178211      24.17502955       6.34839352       53       0.07005400      -0.42161800      -0.01916000 
I       2.70532952      24.27083005      14.91832038       53      -0.34597300       0.14407400       0.06434700 
I       2.48788047      23.95259671      22.75738589       53      -0.43285600       0.22996000       0.38912800 
I       1.62115136      24.18758554      30.42234825       53       0.11134500      -0.23208900      -0.11674400 
I      10.70147217       8.14120682       6.50207989       53       0.10525100       0.25345900      -0.21994200 
I      11.23450766       8.95862156      13.98587582       53      -0.28390800       0.39144900       0.20920400 
I      10.69238592       9.42757752      22.18074516       53       0.23785000      -0.14607300      -0.09699800 
I      10.43273453       9.58566273      29.37933218       53      -0.26955100      -0.05626800       0.28133300 
I      11.11509362      22.25354243       5.46132368       53      -0.26595500       0.23117600       0.31063200 
I      10.81263741      24.80160568      13.49924749       53       0.01377100       0.13233400      -0.06374600 
I      10.17529524      23.68254390      21.86394105       53       0.36244900       0.41512600      -0.54342500 
I      10.40978102      24.94564619      29.51504103       53      -0.31408500      -0.10673300       0.03121700 
I       6.36107626       5.80293658       2.15173687       53      -0.55036800      -0.29061000       0.12231800 
I       6.77985309       6.44449138      10.11817956       53      -0.11541000       0.00335500      -0.25665300 
I       5.50839476       7.04866189      17.32376748       53       0.06684600      -0.48596900       0.13218500 
I       5.71023827       7.35546138      25.06415062       53      -0.29744000      -0.08242900       0.12785700 
I       6.60906565      20.87008531       3.22138873       53       0.63513600      -0.15691200      -0.15140600 
I       6.66124044      21.95735397      10.97116230       53       0.24165700      -0.10985200      -0.79896200 
I       6.19875502      20.81336934      19.06079879       53       0.26034800      -0.34926800       0.14888200 
I       6.45238725      20.99622142      26.90458778       53      -0.46937700       0.37088500       0.21264100 
I      15.39985671       5.99619885       2.58641075       53       0.17394000       0.03451300      -0.50257700 
I      15.32816890       6.25903529      10.32808858       53       0.21436500       0.14730800      -0.13813100 
I      14.55986867       5.91839537      18.58161007       53      -0.36800000       0.42026800      -0.67874400 
I      15.39384340       7.20027363      25.90300970       53      -0.18307700       0.15069500       0.11038700 
I      15.85054267      20.80653418       1.68773156       53      -0.95794100       0.24447300       0.54726100 
I      15.11491200      20.95841890      11.02556868       53       0.62221900      -0.57604700       0.20105500 
I      14.51060305      22.03602415      17.10616147       53       0.38342300      -0.58979300       0.80915700 
I      15.09471069      22.46092543      26.28443540       53      -0.26079700      -0.06715300      -0.54202500 
I       1.85455205      13.40110621       2.66083613       53       0.42560300      -0.38919200       0.39349100 
I       2.51485553      13.68975366      10.62452662       53      -0.27378900       0.43835200       0.03797100 
I       0.82635573      14.52113705      17.99728795       53       0.03625900       0.10559500       0.15572900 
I       0.81355893      14.82091907      26.55904206       53      -0.16917000      -0.12623400      -0.14664600 
I       2.71843147      28.22311914       3.66814479       53      -0.20551700      -0.03712100      -0.06421500 
I       2.71571534      28.89358420      11.26682820       53      -0.35605800      -0.36447700       0.11037200 
I       1.78088515      28.47349221      19.39444074       53      -0.22078300       0.00724500      -0.09646000 
I       1.57371273      29.57875984      26.75710775       53       0.14150200      -0.03442200       0.07483700 
I      10.12524090      12.34821420       2.49341217       53       0.34048800       0.29910000      -0.07590300 
I      10.75695973      14.18506755      10.47770174       53       0.31932500      -0.37688300      -0.22519900 
I       9.83979314      13.44915806      17.93437734       53       0.45717400      -0.20828900      -0.14078700 
I       9.81819184      14.20972912      25.95118537       53       0.19421400      -0.30774800      -0.37848300 
I      10.75220797      28.27100915       2.19217947       53      -0.05371000      -0.01700500      -0.23797600 
I      10.72493849      28.33616792       9.66528248       53      -0.13798200      -0.17255000       0.07525900 
I       9.87185825      28.76710103      18.67578148       53      -0.27656500       0.42041900       0.11070200 
I      10.10988104      28.97147445      26.24331523       53       0.01050500       0.16872100      -0.29896300 
I       0.23927848      12.55434443       6.44685361       53       0.15078000      -0.34036600       0.11556900 
I      -0.50985287      13.08502841      13.92452704       53       0.20782100      -0.05100400       0.36151800 
I      -0.46482522      14.08829310      22.27273860       53      -0.20022700      -0.29762100      -0.44528000 
I      -1.90511724      13.68194845      30.25998705       53       0.20723800      -0.47319400      -0.09908400 
I      -0.09370832      26.50622577       7.68943870       53       0.02741700       0.50760500      -0.05242800 
I      -0.24854997      26.95436914      14.99300900       53       0.28762100       0.42315200       0.06003400 
I      -0.67937974      27.26926046      22.83573240       53       0.20123200       0.71917400       0.30568400 
I      -0.39138061      27.82529138      31.26729376       53       0.46143900       0.61379800      -0.18187700 
I       9.03484762      12.01748823       6.84605210       53       0.15180000      -0.43478000       0.33087700 
I       8.61747858      12.60825945      13.98371930       53      -0.04009700      -0.00953900       0.23803600 
I       7.85424306      12.75678264      21.66734943       53       0.25263600      -0.04179000       0.14396800 
I       7.96990853      12.89867053      30.05694244       53       0.12241900       0.02141500      -0.14653500 
I       8.83724209      26.79700830       5.49970725       53      -0.02036500       0.57708600       0.04604500 
I       8.43687467      27.75303227      15.06489959       53      -0.05523600       0.07539800      -0.23559700 
I       7.37047417      28.09046179      21.91890995       53       0.10344900      -0.33194700       0.03948500 
I       7.93270266      27.87872187      30.22687487       53      -0.29933700       0.14172400      -0.04347200 
I       4.36098037       4.86757018       6.71180271       53       0.08029800       0.02529000      -0.65429500 
I       4.26010249       5.49403712      13.68845604       53      -0.01884900      -0.86640500       0.07074500 
I       3.20755560       5.98748891      21.02572347       53      -0.12426900      -0.42481000       0.26954100 
I       3.14031050       5.73018416      29.93906780       53       0.24405300       0.29802200      -0.36416800 
I       4.43470674      20.18609225       6.65517448       53       0.03115100       0.07895300       0.10710900 
I       3.59852771      20.61632829      14.45826252       53       0.30148100      -0.81178400       0.29579700 
I       3.69674114      20.12964829      23.30307584       53       0.15281800      -0.47289100       0.04189200 
I       3.76490461      19.92447153      30.64939832       53      -0.01213100       0.34287800      -0.35941400 
I      13.39175380       4.56090426       5.67527960       53      -0.40570500      -0.05777800       0.39241900 
I      12.91094575       4.85381699      14.01074213       53      -0.35223300      -0.03599700       0.24571200 
I      12.78447817       5.31633360      22.46791366       53      -0.20628700       0.29393300       0.02665000 
I      12.09945657       4.96943469      30.11507886       53      -0.03280800       0.53422400       0.01184300 
I      13.65828520      19.11796906       5.70903230       53       0.25435400      -0.18995900       0.26066900 
I      11.69027197      20.41836301      13.75090258       53       0.18004900       0.02132400       0.46129800 
I      12.64184934      20.52332678      21.49950430       53       0.01263600       0.05071100      -0.12446600 
I      12.28293551      20.80820422      29.43826901       53      -0.09132000       0.52379300       0.02328300 
I       8.08112641       2.78588618       0.67232132       53       0.23568800      -0.25012900      -0.05353700 
I       8.32798100       2.26399987       8.70960168       53      -0.26450500       0.05922600      -0.08610200 
I       7.30066991       3.43452962      17.28240163       53       0.53248500       0.86701600       0.20756200 
I       7.81376049       3.17138217      24.86124445       53      -0.41131900       0.20541300       0.60394100 
I       8.47081846      16.57107474       2.54271386       53       0.30727500      -0.15669000      -0.10772200 
I       8.98649160      17.58426022      10.06579127       53      -0.52776700      -0.05144800      -0.31574700 
I       8.39964638      17.71547469      17.73347561       53      -0.29392400      -0.54269500      -0.04898900 
I       7.24908202      17.54004760      25.52924200       53       0.07171200       0.30349400       0.35756700 
I      17.96119739       2.53060536       2.53906376       53      -0.37500100      -0.72726500      -0.24566100 
I      17.25587211       2.51909935       9.51347479       53       0.04166000      -0.22966100       0.29204400 
I      16.43974329       2.43216965      17.15962217       53       0.17285800       0.48258100       0.22911400 
I      15.11958187       2.68351472      25.20289439       53       0.04226600       0.39297200      -0.09264700 
I      17.69196157      17.22180159       2.20793808       53      -0.07571400      -0.03109800      -0.17352500 
I      17.11030293      17.69856470       9.47646975       53       0.09064400      -0.08539400      -0.09528300 
I      17.02451388      18.29087629      17.19349284       53      -0.14065700      -0.27741800      -0.00196400 
I      16.94130252      18.35065351      25.72604127       53      -0.10613700       0.40927800       0.27668700 
I       4.78232319       9.47578828       2.19864319       53      -0.49026900       0.13217300      -0.35743100 
I       4.72724607      10.25063022       9.77678407       53      -0.04061700      -0.02445700       0.17450600 
I       3.90343585      10.64691370      16.89119261       53       0.14740300       0.06325100       0.11714200 
I       2.92959912      10.77610618      25.50489045       53      -0.06230700      -0.43661600       0.18544100 
I       5.00300703      24.86172313       2.16112828       53      -0.11891100       0.44177100       0.21751500 
I       3.96611637      25.47876649      10.14884859       53      -0.01921500      -0.26590300       0.07722600 
I       3.97094418      24.73119989      18.87238870       53       0.07735700       0.22858900       0.29682300 
I       4.13654699      25.31520224      26.77754695       53       0.34932200      -0.28090000      -0.05513600 
I      13.14074801       9.32869627       1.94471751       53      -0.14623000       1.04990400       0.16069300 
I      12.81082050      10.12135682       9.85374229       53       0.08531900      -0.60069000       0.01854000 
I      13.09603916      10.60545036      18.12528713       53      -0.27567600      -0.13991500      -0.13062900 
I      12.88296945      10.76548736      26.20078045       53      -0.03512400       0.20418200      -0.29485800 
I      13.81716691      24.46441209       2.32446635       53      -0.54003100      -0.11583900      -0.20030200 
I      13.50392321      24.56974633       9.81822304       53      -0.08720200      -0.02609200      -0.46422000 
I      12.58738154      25.71783634      17.64182924       53      -0.27385500      -0.52899300      -0.18168500 
I      12.72904130      25.88844440      25.11022338       53      -0.14941400      -0.71189000      -0.03982100 
H       0.62281391       9.66508262       3.04648713        1       1.56815800       0.71298200       0.26619000 
H       0.34052196      11.56644935       9.77798030        1      -0.80158900       0.58167800      -0.25311000 
H       0.18649047      10.98245285      17.65885036        1      -3.17798600       0.77081800       1.81375200 
H      -2.02645285      11.32577088      25.47982331        1       0.14953400       0.00307700      -1.71395900 
H      -0.37731836      23.72049168       1.88168114        1      -1.06424700       1.17564200       2.81888200 
H      -0.71053915      24.03312216      10.24798624        1       0.54613100       1.20960200       0.24579500 
H       0.22172700      23.85884354      19.59688188        1       0.13913800       1.22449500      -1.23150700 
H      -0.07675544      25.96577407      25.79946346        1      -0.96437300       0.34582600      -0.75542600 
H       7.78314508       8.91738928       1.93317836        1      -0.98131400       0.62033400      -1.56713100 
H       8.19669146       9.31819151      10.78291015        1       0.67854800       1.47002900      -0.19269400 
H       8.78015371       9.91144683      16.98346877        1       0.42640400       0.25513700      -0.64152800 
H       7.81846545       9.47063388      25.13562005        1      -0.27423800      -0.87365400       0.28109300 
H      10.38441848      24.61464139       2.49175188        1       1.40945700       0.66204400       0.55905700 
H      10.61893448      24.50822304      10.48717796        1      -0.67720300      -0.35787900       1.13382000 
H       7.07241387      25.00987391      17.65754495        1       1.07878700      -0.56652200       2.14033300 
H       9.08007611      26.67974786      26.80219000        1      -2.35371000      -0.91485200      -0.37999900 
H       3.42959652       3.08765800       0.85180796        1       0.37919800      -1.17597200       0.44280100 
H       4.17610534       2.15016433       8.68698354        1      -1.03592600      -0.30300900       1.08120900 
H       3.05942140       4.84076574      16.20480222        1       0.59447700       2.85291900      -2.41431100 
H       4.23349400       3.86292696      25.99462195        1      -1.05255600      -0.18553700      -1.16345600 
H       4.19037817      18.78433979       3.35617531        1       0.02657000      -2.53058900       0.01060600 
H       5.06011881      19.18148802      10.65509913        1      -0.97382200      -1.04185100      -0.29297000 
H       4.95757089      17.08104363      17.38311865        1       0.05692100      -0.21031500       0.21650200 
H       4.81055102      17.92130659      26.72145981        1       0.49372200      -0.27495900      -0.11540200 
H      12.63999017       1.17519279       3.07706160        1       0.41400300       0.32972100      -1.02811100 
H      14.41977366       1.39796685       9.52174893        1       0.64328200       0.08649400      -0.33508100 
H      11.78416846       3.63417371      17.11695188        1       0.82294500      -1.25209800       0.70050700 
H      12.23567725       2.82753963      24.01565940        1      -1.11818500       0.12884000       0.90280000 
H      13.99169902      18.18394026       1.49509812        1      -1.22772800      -1.44658600       0.03185000 
H      12.48008966      16.60823382       9.14150776        1       1.30157500       0.30282800      -0.59422600 
H      11.55849303      18.80731670      15.86911684        1      -0.68850000       0.86188100      -1.26346700 
H      11.34349005      18.50045969      25.08116980        1       0.82353500       2.00629000      -1.23867600 
H       4.78730796      11.48243758       7.29062238        1       1.85613300      -1.07723500       1.99481100 
H       2.70112274      13.43632324      15.68895555        1      -1.79235700       0.41881500       3.08376600 
H       3.55965766      11.77664207      22.35344734        1      -0.24183800      -2.74933500       0.74894200 
H       1.63523505      13.23641885      28.78291520        1       1.27173100      -0.94249000      -0.02137800 
H       4.49408423      25.96064111       6.58032891        1       0.34554600       1.59577700       0.23479200 
H       5.04197262      28.15655843      15.77183348        1      -0.62763600       1.12909600      -0.92566000 
H       4.12291956      27.41226073      24.31718554        1      -0.99422100       0.35225500      -0.42522200 
H       4.45464872      27.46104669      28.96731252        1       0.68963300      -0.36575600       0.60560600 
H      12.98406181      12.24682741       4.66667137        1       0.71487200      -1.38192500       1.45388100 
H      13.66507746      11.15088878      13.25837404        1      -0.68406700       1.99604700      -0.56631600 
H      12.51078306      12.38079504      22.75109181        1       0.95596100      -2.54177100       0.15186800 
H      12.88729419      13.32127295      31.76118914        1       0.42964200       0.70162600      -0.22357000 
H      14.24610436      26.98368985       6.45870863        1       0.39386300       0.28348200      -0.62458200 
H      13.70256606      28.73872793      13.31374169        1      -0.02861800       0.40528500       0.31421400 
H      12.52566229      26.86132669      21.94082908        1      -1.08354800      -0.07995200      -0.18867700 
H      11.25975223      28.87917001      29.48688827        1       0.58493100      -0.13915700       0.17438600 
H      -1.41258772       5.26078559       7.27130239        1       1.65625100      -0.69898100      -0.30894300 
H       0.55535920       5.84854041      15.51768260        1      -0.83554800      -3.20622800      -1.03252800 
H      -0.27393299       5.91550083      21.95406167        1       3.77086800       0.77961400      -0.80578000 
H      -1.19434801       4.33700807      29.77344939        1       0.44281100       3.00791700       0.96575200 
H       0.97399077      19.05211128       6.54238893        1       0.91408100       0.28963600       0.24839500 
H       0.93836135      21.00609735      14.99035721        1      -0.62144100      -0.47870700       1.18497900 
H      -0.03282750      21.37417640      21.51084652        1      -1.01738500      -0.27141700       1.50606400 
H      -1.24741192      21.81225665      29.70992556        1      -0.98880000       0.28729200      -0.10006300 
H       8.69190883       6.18469570       4.26421372        1       0.04140000      -2.46467800       0.71137200 
H       8.87641632       4.77304878      14.31031356        1      -0.63281900      -1.17369000      -0.21135100 
H       8.79509045       6.96438007      21.75985958        1      -0.63434600      -1.76039900       0.20314400 
H       7.81092834       4.55314780      27.91955054        1       0.76627300       2.91802200       0.07203500 
H       9.77931009      18.87996480       6.67812702        1       4.63866700      -1.43256500       3.94640700 
H       7.06938772      20.38440070      13.41529422        1      -1.54568800      -1.21635000      -0.89018600 
H       7.24681338      20.41752848      23.64675947        1      -0.74935400      -0.48315300       0.74061800 
H       9.23072657      19.60175258      30.22380972        1       1.14649600       1.19468000      -0.14852500 
H       7.80520751       7.89461644       3.17542516        1      -1.30658500      -1.80941500       1.56800400 
H       9.63909614       9.48353110       9.86512156        1      -0.63455400       0.85687500       0.70018300 
H       7.04803697       9.29530624      17.12640178        1       1.48750700      -0.49473500      -0.69567900 
H       9.25086354       9.85279760      26.08046267        1       0.34199600      -0.58890400      -0.53211900 