768
Lattice="17.8055164443 -0.331229883245 -0.24123537587 -0.0114562199131 31.5688373068 0.000671075643445 -0.655753089544 0.243897241264 32.5656243072" Properties=species:S:1:pos:R:3:Z:I:1:forces:R:3 energy=-99806.9415457 stress="381.910512 -1209.566394 -2391.418498 -1209.566394 -1658.416442 -593.046386 -2391.418498 -593.046386 -309.531436" pbc="T T T"
I       2.64511400       0.59316968       6.94207152       53      -0.30267500       0.07978400       0.06760200 
I       2.18696413       2.04345797      14.32224528       53       0.05865900       0.19547900      -0.00343800 
I       1.72709476       2.41025486      23.34800259       53      -0.12440100       0.04861500       0.13870500 
I       1.40759034       0.94347524      31.15963415       53       0.88819300       0.34496400       0.10915900 
I       2.23933047      16.96457809       6.04782651       53       0.18656200       0.02479800      -0.04690100 
I       2.56686434      17.11760170      14.60646622       53      -0.60602500       0.31621800       0.23750000 
I       1.96539494      16.51703489      23.14801797       53       0.42770400       0.54850400      -0.27865000 
I       1.91215356      17.34417846      30.92362969       53      -0.45663700      -0.07533100      -0.28160500 
I      10.97626009       0.86455552       5.58276293       53       0.10088300       0.26200100      -0.15293900 
I      11.42962880       0.83502513      14.00951282       53      -0.44398000       0.21717300      -0.23687800 
I      11.24147571       1.02768402      22.03514509       53      -0.38602800       0.05308300      -0.10801200 
I      10.94295413       1.07273583      29.91934663       53      -0.09898000      -0.21638000       0.08447200 
I      10.92699314      16.54032672       5.83437040       53       0.11822200       0.11233100      -0.11042200 
I      10.93772933      16.96070564      13.59690532       53       0.46105300       0.22965700       0.37221300 
I      10.86968552      17.49947637      22.03127671       53       0.39539200       0.15468000       0.36674900 
I      10.81539265      17.24989743      30.11765051       53      -0.79885300      -0.39228800      -0.15206100 
I       6.64750908       8.35237982       5.76802468       53       0.17706700       0.10901800      -0.25242200 
I       6.02061735       9.99167585      12.99761437       53      -0.18934900      -0.05656000       0.48357100 
I       5.65154002       9.73841415      21.82213466       53       0.40599300       0.38796200       0.41787900 
I       5.48946098       9.04196511      29.71237181       53       0.52844100       0.44679600      -0.00592200 
I       6.45592005      24.58615551       6.28320068       53       0.37852900       0.62284800       0.76171000 
I       6.39699899      24.82997525      14.59017172       53       0.21727500       0.31452700       0.21556700 
I       6.16621017      24.93992864      22.61069240       53      -0.16918500       0.03345800       0.25359100 
I       5.38787868      25.94362834      30.99271071       53       0.14361400      -0.09961200       0.18366800 
I      15.34679931       9.10837101       6.64902155       53       0.23699800      -0.12693700      -0.45476200 
I      15.89151284       9.67532284      15.02414859       53      -0.37369100      -0.09129600       0.01647500 
I      14.74399185       9.81736752      23.07308697       53      -0.32747700      -0.46475400      -0.13025000 
I      14.57288898       9.32806567      30.83990638       53      -0.30021100      -0.18589100       0.11837700 
I      15.77269778      24.84544466       5.44540863       53       0.06423300      -0.14509900      -0.15316300 
I      15.39840075      23.85226087      13.51882496       53       0.37032200       0.39941700       0.12616400 
I      15.24865093      24.56780496      21.48253979       53       0.06196100      -0.10869700       0.22272100 
I      15.32212046      23.50167586      29.67805720       53       0.52939400       0.23704800       0.12212700 
I       6.63396723      14.21043776       1.50803242       53      -0.23038200       0.03702900      -0.21789900 
I       6.60460410      13.59324194       9.81637723       53      -0.05161900       0.07364100       0.28116900 
I       6.78157225      14.37691449      18.10246028       53       0.34585300       0.11618700       0.24054700 
I       6.45063405      14.42732879      25.69172000       53      -0.41111300      -0.25609300       0.47085200 
I       6.49372874      30.19663652       1.33440740       53      -0.04828000      -0.19662400      -0.32565300 
I       6.51079935      29.69023243       9.64398524       53       0.14215900       0.08084000       0.08883300 
I       6.86996148      29.98330789      17.91900268       53      -0.39359900      -0.26618000      -0.17664300 
I       6.17069046      30.38889867      25.75548035       53       0.33564200       0.00709200       0.15076000 
I      15.65420397      13.46192937       1.72419322       53       0.14039000       0.11765800      -0.04354100 
I      15.79278109      13.58456895       9.58906922       53      -0.09630800      -0.28913300       0.43206500 
I      15.84046826      13.53445755      18.11970631       53      -0.17253800       0.14859900       0.40425000 
I      14.82777534      14.43116555      26.66458693       53       0.03664100      -0.01420800       0.16107400 
I      15.70763811      29.59713548       2.66456601       53      -0.13697100      -0.08659300      -0.04108900 
I      15.11469689      29.97763333      10.76697525       53       0.44215100       0.03633400       0.18631400 
I      15.69280204      30.50209322      18.07563765       53       0.32873700       0.56632100       0.29509600 
I      15.29981382      29.47845605      26.55344742       53       0.32685400       0.47260600       0.32200400 
I       2.16819951       6.11793657       1.72361700       53      -0.43478400      -0.01391900      -0.55062400 
I       1.50815378       6.86090298       9.48202960       53       0.15828900      -0.36275000       0.15371100 
I       2.45391659       6.27182911      17.57756592       53       0.11298000      -0.08495600       0.22068500 
I       1.46867454       6.50907985      25.57352910       53      -0.51252600      -0.36405100      -0.14104200 
I       2.28631902      21.93185655       2.37352622       53      -0.44552300      -0.47048900       0.14588500 
I       1.85723652      21.59449316      11.09258054       53       0.51742600       0.46774100      -0.36375100 
I       1.27708857      23.13653830      18.60200266       53       0.07413900      -0.02626800       0.01539400 
I       0.97714937      22.84778403      27.10336127       53       0.40528000       0.10596900      -0.01174400 
I      11.17208873       6.01688564       2.57918031       53      -0.19328000      -0.14278300      -0.15045600 
I      10.98223245       6.40492850      10.48566504       53       0.33218200       0.14961300       0.12262700 
I      10.74443099       6.56081896      18.27709089       53       1.38022100       0.27852200      -0.26641400 
I      10.21312367       6.48653048      26.81257339       53      -0.76523400      -0.60149300       0.04659200 
I      11.25311856      22.02319729       1.44031701       53       0.22515900       0.09460100      -0.17162500 
I      11.13918665      22.04390884       8.86895916       53      -0.07432700      -0.32924800       0.19240900 
I      10.47438423      21.94636219      17.75602513       53       0.43926400      -0.00033300      -0.09443100 
I      10.12614901      22.35191115      25.31926792       53       0.40499900       0.50533500       0.29338200 
I       6.34165667       1.06806686       5.59419977       53      -0.16917200       0.27196700      -0.11812400 
I       6.55869253       1.44731129      13.71662399       53      -0.00143300      -0.01823400       0.06377600 
I       6.54233889       1.21968100      21.71387323       53       0.15425500      -0.25599000       0.02051100 
I       6.83479426       1.44889821      29.64657376       53      -0.54539100       0.38881100      -0.23717800 
I       6.37386320      16.34050426       6.04323198       53       0.10524400      -0.18529600      -0.16361300 
I       6.29325356      17.40263343      13.40644324       53       0.38570700      -0.01188900      -0.07230900 
I       5.82338842      17.02734202      21.65967724       53       0.29410400       0.19819500       0.55612400 
I       5.93258303      17.11024842      30.12294364       53      -0.17425000       0.22627100      -0.18135400 
I      15.59604578       0.78036409       6.17531456       53       0.10264100      -0.34837600       0.03747400 
I      15.37856322       1.36209080      14.39789937       53       0.06737300      -0.10330700      -0.16921200 
I      14.95340314       1.30420390      23.27416388       53       0.62433500       0.01866400       0.16222700 
I      15.03621062       1.26881944      31.12090655       53      -0.32711900      -0.10505600       0.19614200 
I      15.26373280      16.47335786       6.43534413       53       0.51890800      -0.24447000      -0.21465000 
I      15.31733828      16.20732430      14.90160284       53       0.27440600       0.21828200      -0.10180300 
I      15.71349626      17.04876341      22.48889115       53      -0.38304400      -0.69673800       0.15863400 
I      14.77618002      16.69315145      31.05434258       53       0.30792100       0.03969700      -0.30676100 
I       1.92979530       8.46732243       5.51705463       53      -0.41500600       0.31411100      -0.22276000 
I       1.86204419       8.65634649      13.48120087       53       0.32675000       0.36237600       0.09857500 
I       1.66724256       8.33097067      21.62643656       53      -0.25020300       0.30862700      -0.37333200 
I       1.36119025       9.39387494      30.40361848       53      -0.01334700      -0.28411900      -0.05953000 
I       1.91608006      24.41674053       6.72934258       53      -0.33634300       0.23772700      -0.58689000 
I       2.30001488      25.73637305      14.59516298       53      -0.75254600       0.46644200      -0.44170500 
I       1.23508515      25.48152646      22.77151598       53      -0.55566400       0.54559200      -0.27351800 
I       1.38957125      24.75139514      31.22372187       53      -0.81545300       0.30706000       0.03348600 
I      10.80452693       8.96539416       6.67321903       53       0.33751600      -0.23315000      -0.17712200 
I      11.60354243       9.48463741      14.62601410       53      -0.56141200       0.30819800      -0.20835800 
I       9.55066901       8.11960326      22.48954387       53       0.22666700       0.25455100       0.04436600 
I       9.54849770       8.86393425      31.23999800       53       0.69786300      -0.27073500      -0.11739300 
I      11.10315050      24.37968859       5.20708193       53       0.10883000       0.12906900       0.19581300 
I      10.69504472      23.73558753      13.61318553       53       0.06015000       0.13612200       0.18169800 
I      10.73043529      25.20233554      21.10183695       53       0.17960900      -0.18327300       0.16936700 
I      10.38079366      24.57568959      29.93540451       53       0.27122800       0.13107800       0.37906800 
I       6.80638267       6.20231057       1.72479087       53      -0.18199500       0.05360200      -0.12799000 
I       6.68308731       6.45161007       9.52481016       53      -0.35916900      -0.07508600       0.27061800 
I       7.26306189       6.32246880      17.59064883       53      -1.10238500       0.34900100      -0.26105700 
I       5.69661428       6.22480792      26.36852936       53      -0.00560500      -0.06057500      -0.11716000 
I       7.14080272      22.19961777       2.61978344       53      -0.52731200       0.17178400      -0.10711200 
I       6.41481718      22.31271135      10.68934159       53       0.00548500      -0.19426300       0.05508100 
I       5.88177710      22.76545386      18.96567977       53      -0.06181200      -0.06194100       0.18948200 
I       5.89690894      23.05405412      26.97623425       53      -0.07212200       0.05711500      -0.14181300 
I      15.40319312       5.88021160       2.43248195       53       0.10454600       0.34685200       0.07946100 
I      15.50080709       5.97524733      10.49652259       53      -0.14306400      -0.16120800       0.11196700 
I      15.37503140       7.50222590      19.08980225       53       0.52238800      -0.42909700       0.83876500 
I      14.33339758       6.56170625      26.59150801       53       0.96076800      -0.42558800       0.77451900 
I      16.01371592      22.04240759       1.94988371       53       0.18787100      -0.06865600      -0.85421100 
I      15.67231486      22.02753480       9.62801914       53       0.02957700       0.43015500      -0.12297200 
I      14.96877363      21.06626994      18.32568472       53       0.09623900      -0.13314000      -0.28473500 
I      14.97125804      22.24796887      25.59696473       53      -0.30301100       0.01643800      -0.18591100 
I       2.50551293      13.80558435       2.25443783       53      -0.54955400       0.42126800      -0.32193600 
I       2.39076409      14.62125028      10.75483368       53       0.39682400      -0.05872100      -0.59049300 
I       2.66796423      14.63647288      18.68526908       53      -0.68733900       0.14121800      -0.22491000 
I       1.85313357      14.29668934      27.28053442       53      -0.22771000       0.23318700      -0.22507800 
I       2.30296129      30.02056585       2.43435035       53       0.65386000      -0.36401400       0.21284900 
I       1.97104401      30.21653116      10.68623812       53       0.58436100      -0.43088300       0.14273900 
I       2.20495671      31.94758098      18.84971932       53       0.14045100       0.06396100       0.35422800 
I       1.58646362      30.11706306      27.95256874       53      -0.11688000       0.02787800      -0.41182600 
I      10.82784834      13.80332329       1.68229179       53       0.03003800       0.08481300      -0.12345400 
I      11.52638505      14.23607530       9.77360584       53      -0.48782400      -0.18157500       0.08593400 
I      11.30498210      14.49615382      18.10919653       53       0.61490700      -0.18751200       0.49436700 
I      10.80060757      15.14574485      26.23256006       53       0.22119700      -0.10886400      -0.00449800 
I      10.98169090      29.89717768       1.65560480       53       0.15036400      -0.11223500      -0.20157900 
I      11.16856915      30.39506481       9.52761073       53      -0.21410300      -0.14845900       0.01424700 
I      11.74609807      30.16686850      18.00682180       53      -0.58727800      -0.13755000       0.22659500 
I      11.34712117      30.23728249      25.72987239       53      -0.40051100       0.17880600       0.23826100 
I       0.30682945      12.95344883       6.02412775       53       0.04699100      -0.94432600       0.01996600 
I       1.27156494      13.05525243      14.19201683       53      -0.45181200       0.06079300       0.59641100 
I       0.33035993      13.01364778      22.87257712       53      -0.76030400      -0.28526100      -0.13929000 
I      -0.32750939      13.29470201      30.87907353       53      -0.08716800       0.22102900      -0.28283800 
I      -0.19404693      28.64575419       6.65789852       53      -0.05159700       0.33993100      -0.27173100 
I       0.34971404      29.27862034      15.10683266       53      -0.07055000       0.21038000       0.02667800 
I       0.59352357      30.24524055      22.43395167       53      -0.40249900      -0.35357600       0.14573300 
I      -1.22847434      28.37343006      31.39145304       53       0.08528700       0.78177600      -0.35517300 
I       8.99474097      12.49143568       5.49247062       53      -0.06417600       0.07276800       0.28494700 
I       8.83808968      13.24154731      14.22901472       53       0.08935100       0.00662100       0.04878900 
I       9.30712260      13.27215162      22.28121873       53      -0.93255500       0.39084600       0.02400900 
I       8.47667975      13.18400410      30.25991854       53      -0.14616300       0.17910200      -0.22243000 
I       8.90817221      28.79951516       5.88024729       53      -0.24576900       0.19399200      -0.30044400 
I       8.61154352      28.47591800      13.56469063       53       0.03919000      -0.01097800       0.19069100 
I       8.75663558      28.40069939      22.13412058       53      -0.07535300       0.36231200       0.07797200 
I       8.47849104      28.90200616      29.85432675       53       0.10992600      -0.23383000      -0.12314100 
I       3.96998560       4.87804375       6.20149161       53       0.12482300      -0.57145700      -0.13901000 
I       4.61683725       5.58375628      13.73619431       53       0.13995800      -0.27312500      -0.24966200 
I       4.74780510       5.41746619      21.96961424       53       0.21785300      -0.51608400       0.34942400 
I       4.15148708       5.09145499      30.58918823       53      -0.39711400      -0.05880200      -0.03462500 
I       4.90659506      20.68725804       6.08268165       53      -0.37760100      -0.15620400       0.01804500 
I       3.97287082      21.66705092      15.21663614       53      -0.28862700      -0.37100000      -0.00028000 
I       2.93372854      21.44129209      23.07196613       53       0.15195800      -0.14409100       0.12042100 
I       4.18127652      21.50207033      30.77363001       53      -0.35694100       0.06688600       0.01754900 
I      12.88582521       4.55274340       6.02102224       53       0.23484600       0.59911400       0.21944300 
I      13.55628791       5.45116479      14.92268869       53       0.07444200      -0.20788200       0.05010800 
I      12.70926500       5.31111599      22.33318018       53       0.27995500      -0.08878000       0.19954700 
I      12.60713810       4.86538000      31.13259632       53      -0.32619400       0.60635200      -0.05035900 
I      14.31008943      20.38990626       5.22813311       53      -0.61188100       0.34224700       0.30961900 
I      13.35074906      20.25178808      13.80565472       53      -0.21768800      -0.13839700       0.23837900 
I      12.16473505      21.30945633      21.67369844       53      -0.13449500      -0.73898600       0.39428100 
I      11.90559481      20.70441942      29.95643835       53       0.75344200       0.46207200       0.09720400 
I       8.79299809       2.35988645       1.42729426       53       0.20750100      -0.06409300      -0.12225400 
I       8.44627023       2.28596105      10.05849275       53      -0.02792300       0.31923600      -0.39237200 
I       9.31185685       1.76676879      17.83288164       53       0.06468000       0.88019400       0.15375400 
I       8.71611199       2.77655814      25.36453391       53       0.35689400      -0.25599600       0.21674900 
I       8.98596905      18.11251111       2.15449855       53      -0.15695600      -0.07210100      -0.38088500 
I       8.82427450      18.06287701       9.60104354       53       0.07520200      -0.25821200       0.06930100 
I       9.08173501      18.44505051      18.34949872       53      -0.36180000       0.59974600      -0.56715500 
I       7.97063058      18.42603194      25.92944090       53      -0.02337400       0.66930700       0.53833300 
I      17.85900770       2.48281160       2.06141281       53       0.11896000      -0.66754000       0.11458500 
I      17.53335448       2.09601196      10.54414448       53      -0.00008200       0.88018200      -0.21441000 
I      17.05666946       3.54265932      18.38143397       53       0.21826000      -0.36418700      -0.25274700 
I      17.27145752       2.23046778      27.54532680       53       0.20126600      -0.14743400      -0.33072700 
I      18.33635870      17.91792365       2.10619640       53      -0.05586000      -0.02148500      -0.11672100 
I      17.51080919      17.83712839      10.08372948       53       0.17104100      -0.27973400       0.07284800 
I      18.03837051      18.16873971      18.97740625       53      -0.00568200       0.04174600      -0.22074000 
I      17.46990315      18.17100484      26.36720863       53      -0.14842500      -0.05999700       0.12633300 
I       3.92341825       9.95005284       2.15420687       53       0.25780100      -0.05793700      -0.32895300 
I       3.90724717      10.57898330       9.54116278       53       0.53177100      -0.16714500      -0.19142200 
I       4.14007268      10.57377482      18.02874700       53      -0.00948100      -0.23312400      -0.24216000 
I       3.19625476      10.23816561      26.18901663       53       0.26839900       0.10365500       0.09001400 
I       3.79225662      26.15867238       2.71123025       53       0.00583500       0.47559500      -0.04802700 
I       4.05352126      25.76076940      10.19854257       53      -0.01499700       0.47823600      -0.25485900 
I       3.76471498      26.71308897      19.11850042       53      -0.00773600       0.59648200       0.40639500 
I       3.32992018      26.93308144      26.86671634       53      -0.00067400      -0.39586200      -0.08516600 
I      12.70548638      10.09663596       2.37380158       53       0.14029200       0.28206500       0.22481300 
I      13.81862749      10.14136753      10.29886124       53      -0.15303700       0.37005300      -0.44694200 
I      12.67472806      10.70097221      18.71262510       53      -0.20971200       0.29813000       0.09811100 
I      11.67267342      10.24481823      27.04106240       53       0.22303800      -0.00627500       0.12891200 
I      13.47914480      25.98117594       1.38202725       53      -0.21436200      -0.07399000      -0.16885000 
I      12.99475159      25.73669737       9.83594653       53       0.09017700      -0.38922100      -0.03897300 
I      13.42872438      26.12197026      17.59778692       53       0.07078600      -0.44955200      -0.10753400 
I      12.99062723      26.09159644      26.32406295       53      -0.12723500       0.02317700      -0.14563800 
H       0.40215789       9.60403788       2.97704148        1       1.12705100      -1.95475900       3.70703200 
H       1.41464989      10.42425651       9.24054945        1      -0.21262200      -0.09081700      -1.01748700 
H       0.12214189      10.40455055      17.90505491        1       0.68167100       0.66092800       0.34141500 
H      -0.68261447       9.56445869      27.86874854        1      -0.42816900      -0.61390100       0.49999500 
H      -1.56324317      26.44022839       2.21561131        1      -0.50498400      -1.37865000       0.30875000 
H       0.62244918      26.76460372      10.97742478        1       1.31602800       1.81307500       0.96614400 
H       0.19883829      26.51539498      19.18178652        1       0.50181900       0.45572600      -0.23015900 
H       0.13807840      26.35699155      25.91337078        1       0.69007500       0.29683300      -0.76741200 
H       8.42810020       9.67097308       1.24437924        1      -0.46870000      -1.86451000      -2.25579800 
H      10.21164894       9.52138135      11.82280161        1       1.64281800      -1.42332700      -1.77017700 
H       8.35990749      11.49852827      18.02035346        1       0.29049600      -0.80672100      -0.54947800 
H       6.63138593      10.99474220      26.06395485        1       0.51794600       1.18028000      -1.58504700 
H       7.54949390      25.70008193       1.59708354        1       1.31625400       0.84188000       0.49982500 
H       9.58471437      25.22465135      10.28075341        1       3.48637200      -1.16330500      -0.05672300 
H       8.47199854      25.47942043      18.57091697        1      -1.99063600      -2.56456600       3.87284100 
H       8.72279725      26.76012648      27.19800028        1       0.32111300      -0.80390100      -0.66848900 
H       4.01560752       1.40555366       2.84612155        1      -0.38471300      -0.10144100       1.47612900 
H       3.04399402       1.83895124      10.32924424        1       0.19371500       0.02884700       0.52796300 
H       5.39963985       2.81818930      18.78014673        1      -0.47036500       0.69137400      -0.62424400 
H       4.59528022       0.92264232      26.84141740        1      -0.55429800      -1.01038800       1.05793200 
H       4.80957160      19.10797534       0.51715455        1       0.36046500       0.21891100      -1.61178800 
H       5.24938519      19.27813891       9.32029833        1      -1.35665100      -1.54321400       0.02991800 
H       3.25213761      20.14714719      18.88163621        1       1.48046200      -1.56432000      -0.28581400 
H       4.85113953      19.24607618      26.66549869        1       2.47932700       2.16119500      -0.62278300 
H      14.50086359       0.98049863       2.27805296        1      -1.22521500       1.41791000      -0.58721800 
H      13.00695538       1.02729341       9.95108903        1       0.65379600       0.86683900      -0.34184500 
H      14.48074356       2.07455182      18.85222107        1       0.67784100       0.20661900      -0.40425800 
H      14.00692438       3.73571799      27.18021065        1      -1.56793100      -1.02359300       0.99576500 
H      14.35153192      16.98727228       1.16006338        1      -0.52697700       0.04124800       0.92262000 
H      12.49302464      18.89460796       9.91609621        1       0.04878200       0.16809700       1.86971500 
H      13.69985016      16.52086247      18.92861661        1       0.49451900      -1.69495800       0.05337800 
H      13.87996564      19.47684971      25.96256328        1       2.16640300       0.77007300      -0.28006300 
H       3.67732931      11.03027454       5.20608654        1      -0.27266300       0.10420800      -0.48455900 
H       4.00929452      14.36984678      14.27552598        1       2.42188300      -0.29454600       1.14538400 
H       4.98973195      13.45193462      21.68587367        1       1.73640700      -0.25161400      -0.35810000 
H       4.10410588      14.70923360      30.05278156        1      -0.04816900      -1.18194100       0.13452100 
H       4.93310255      28.91562450       5.76925464        1      -0.48819700      -0.60888700       0.17627800 
H       4.51661853      30.25941983      14.03811002        1      -0.84317100      -2.01220100       1.99137000 
H       3.11262935      28.85603646      22.36940297        1      -0.32323700       0.29682600      -0.60811600 
H       5.36445529      28.83513010      29.77476247        1       1.39615700      -1.31537600      -0.18513700 
H      14.22613868      13.37792661       4.60137395        1      -0.78335200      -0.68470400      -0.02984500 
H      14.48027136      12.59066207      12.91589001        1      -0.34273500       1.05265800       0.87235700 
H      12.45998284      13.15569756      20.92311257        1      -0.69968300       0.26485600       0.52952500 
H      13.64460167      13.56090385      29.83503179        1       2.94525000       0.91600900      -0.39039500 
H      12.84150566      27.43998220       7.25692634        1      -0.39213100       1.19355600      -0.34481500 
H      12.28345425      27.20678239      14.72614817        1       0.34918200       1.86031800       0.30649100 
H      15.25182171      28.93140804      22.29241795        1      -0.53685900      -0.34893100       0.33919500 
H      13.89188182      28.17909247      29.54359017        1       1.82325500      -0.57672900       0.35804200 
H       0.33726854       5.16105716       4.78930777        1      -0.23692900       0.23036600      -0.01481500 
H      -0.71878219       6.35751160      15.68343146        1       0.11768500       0.24396500       0.01406800 
H      -1.37084130       5.06015614      21.33089913        1       1.61381400       0.55976600      -0.82274600 
H      -0.53008449       5.07282805      29.03280675        1      -0.31632800       0.01901000       1.17831700 
H      -0.72293204      20.27287495       7.58653361        1       0.61474900       0.94234600      -1.14495800 
H      -1.58844421      20.89509669      16.13532135        1      -0.21493600       0.57561300      -0.58100200 
H      -0.65383063      19.99530766      22.67431506        1      -0.00339200      -1.05950100      -0.77928100 
H       0.29073281      20.02390487      31.28882233        1      -0.26736900       1.12975600       1.11471200 
H       9.01128635       4.33046948       4.98789108        1       1.09303400       1.06372700       2.18547300 
H       8.52398956       4.63629334      14.04422109        1       0.95626100       0.08096100       0.54405400 
H      10.19761244       3.96974695      20.53784070        1      -1.86852100       2.06740100       0.24916800 
H       7.15764182       5.61362323      30.00800307        1      -2.03660900       1.72392100      -0.52518000 
H       9.55551442      19.96314192       5.23174651        1       0.00328300      -0.10278100       0.42095200 
H       8.51745627      21.49232036      14.78682340        1       1.12788400      -3.03327200      -0.16074000 
H       8.01067585      19.62253126      22.98692616        1       0.25054600      -1.00765900      -1.09171200 
H       8.11448656      20.24463674      32.08979496        1       0.55528900       0.17458400       0.99034900 
H       8.98087989      10.93813014       2.08737365        1       0.30352300       0.46619300       0.86496500 
H       8.62452241       9.71436761      12.44898454        1      -0.42920400       0.51737700      -0.27159600 
H       6.99643986      10.33147164      17.87600386        1       0.98421400      -0.75541900       0.92910200 
H       8.07991291      10.47798030      24.84206175        1      -0.18596100       0.37280200       0.73217500 