768
Lattice="17.3763778671 0.178290983329 -0.226059141628 0.841453789437 30.7865415732 0.581943055841 -0.614373034572 0.869691458913 31.9989258522" Properties=species:S:1:pos:R:3:Z:I:1:forces:R:3 energy=-99811.5801978 stress="-1209.268231 -151.537488 886.793964 -151.537488 512.224028 -1917.063159 886.793964 -1917.063159 -1680.756595" pbc="T T T"
I       2.27281982       1.46641345       6.84087203       53      -0.10811100      -0.49735400      -0.19099200 
I       1.62596987       1.91459608      14.74113002       53       0.56837100      -0.25882800       0.03153700 
I       2.12745314       1.65788455      21.97100101       53       0.14079100       0.55771700       0.58928400 
I       1.86201945       1.88849850      30.61603203       53      -0.21017600      -0.00731200      -0.05507800 
I       2.98035040      16.24797858       6.07836408       53      -0.33651600      -0.09265800       0.31544900 
I       3.12186930      16.97999692      14.70971366       53      -0.54574200       0.08705600      -0.00430700 
I       1.88895489      16.81945285      22.52396041       53       0.10278900       0.34146200       0.13186700 
I       1.51103888      17.76569340      30.19791359       53      -0.10926600      -0.46429900       0.15332800 
I      11.56459692       0.91134292       5.23733671       53      -0.43772400       0.42492000      -0.22280200 
I      10.88986183       2.24146638      13.53857140       53      -0.06061800      -0.30611800      -0.45267100 
I      10.35342001       2.30242763      21.84841341       53       0.02397400      -0.24310600      -0.19959500 
I      10.28204889       2.26180077      29.23287057       53       0.27422200      -0.43917800      -0.13270700 
I      11.33745925      16.76261500       5.82557921       53      -0.20338600      -0.03820600       0.22387600 
I      11.20162663      16.78985603      13.63035182       53       0.27981000       0.02973300       0.37414900 
I      10.47143181      17.16218861      22.21401713       53       0.28618700      -0.24964500       0.22420700 
I      10.83311885      16.95152358      30.27069380       53      -0.49981700      -0.07554300       0.12114800 
I       6.80764214       8.93317189       5.32898630       53      -0.37976300      -0.46571900      -0.10847900 
I       6.80373544       9.20043510      13.47930385       53       0.54817000       0.31886100       0.07912000 
I       6.23390594       9.92737134      21.90583647       53       0.56209900       0.10664400      -0.43755300 
I       6.47674630       9.06433484      29.71213700       53      -0.37040400       0.22417400      -0.23081400 
I       7.59605492      24.21358088       6.96929770       53      -0.55399000      -0.03803200      -0.06858800 
I       6.69560821      25.00709474      14.85477076       53       0.17237800       0.03840900      -0.11265000 
I       6.87804057      24.82957471      22.81785747       53       0.24394100      -0.04862500      -0.19075600 
I       7.25278988      24.60819122      31.00923129       53       0.46790300       0.13096200       0.41729500 
I      15.28512059       9.08919510       6.38122896       53       0.10330100       0.03812600       0.31172900 
I      15.62398261       8.85138091      14.70576303       53      -0.17831300       0.25520500       0.09356700 
I      15.40029126       9.57615608      22.81174876       53      -0.17251000       0.42040600      -0.18071000 
I      15.39554370       9.11536757      30.49761277       53       0.60655800       0.31784300       0.41868400 
I      15.99542441      24.34854667       5.60860973       53      -0.21567800      -0.13429000       0.02191900 
I      15.39024489      24.33720506      13.96792758       53       0.94172500       0.74542500       0.22196300 
I      15.89219753      25.12140258      22.05845030       53      -0.61442700      -0.43066700       0.11639900 
I      15.57480936      25.64659167      29.48339450       53       0.17450900       0.08120500       0.61902900 
I       6.89010719      13.30409668       2.57598030       53       0.15759500       0.43199700      -0.40106500 
I       6.49711965      14.26045849      10.05800102       53       0.35678200       0.02280400      -0.08231000 
I       6.31129489      15.10130611      17.87456162       53       0.02160400      -0.12117500      -0.30031200 
I       5.83634160      14.96942612      26.50285336       53       0.30469800      -0.00103400      -0.24633300 
I       7.61313374      29.13025686       1.60681687       53      -0.00799600       0.16384500       0.06228800 
I       7.61812197      30.01414405      10.03303391       53       0.21978200      -0.18682800      -0.22911200 
I       7.03534704      30.15067871      17.37604432       53      -0.26786100      -0.03642300       0.24130400 
I       6.29039426      30.19857469      26.19061919       53       0.51928500       0.11503300      -0.05060600 
I      15.47023132      13.59237637       2.63204819       53      -0.61182000       0.35512500      -0.36596100 
I      15.45455060      14.22346072      10.26119420       53       0.21378800       0.72333200       0.16011200 
I      15.50763155      14.47007895      17.92940018       53      -0.03547300       0.19274100      -0.28448300 
I      14.42530673      15.00724379      25.83420500       53      -0.55913900      -0.09474300       0.83726300 
I      15.92389850      29.67656428       3.38179746       53      -0.76989200      -0.26604600       0.26971500 
I      15.95516206      30.22586066      11.21906296       53      -0.31736400      -0.40150300       0.24106600 
I      15.43447186      30.46634821      18.91822692       53       0.02149800      -0.14470300       0.08480400 
I      15.26384447      31.03857945      26.66547761       53      -0.22644700      -0.25042100       0.37130900 
I       1.92926117       5.80867216       1.45556917       53      -0.00000600       0.44868900       0.13366600 
I       2.50605222       6.54864970       9.73444821       53      -0.08276500      -0.20985100      -0.15157800 
I       2.78994785       6.71699818      17.51747334       53      -0.57748800      -0.01989800       0.40997000 
I       1.88318472       7.03038678      25.61577650       53       0.05388900      -0.04838800      -0.19389400 
I       2.99950340      21.37655393       2.89365708       53       0.18957600       0.27781900       0.34343200 
I       3.00739768      21.81761123      10.94881480       53      -0.92633000       0.03944400      -0.51136600 
I       2.22660855      22.56819736      18.48831450       53      -0.21674400      -0.28196900       0.73987400 
I       2.39295075      22.51066146      27.04956224       53       0.04061100       0.21681400       0.06915800 
I      11.02669908       6.50126102       2.36009335       53      -0.45484500      -0.05507500      -0.04764600 
I      11.02186065       6.20895980      10.72325199       53       0.41433400       0.20205800       0.10933100 
I      10.62469377       7.28653507      19.04568291       53       0.37068100       0.05983900      -0.52545000 
I      10.50087984       7.83832406      26.64534194       53       0.07424300      -0.12253800      -0.08439700 
I      11.64705899      21.92719547       1.22583302       53      -0.29471200      -0.09755800       0.02003500 
I      11.22021340      22.47283481       9.46238951       53      -0.12253500      -0.09040300       0.30888000 
I      10.84180206      22.92159765      18.10221560       53      -0.22552300      -0.10871600       0.25932600 
I      10.98810647      22.86896309      25.82487067       53      -0.02965000       0.08359100      -0.09276800 
I       6.60780939       1.20632251       5.34260781       53       0.46038400       0.07996400      -0.07389700 
I       6.04826993       1.48075598      12.86599637       53       0.41306500      -0.08764300       0.30856100 
I       6.14907110       2.36186195      21.59817909       53      -0.80515400       0.49059300      -0.58588600 
I       6.25717136       2.12908892      29.42205876       53      -0.92015700       0.35220800      -0.19080400 
I       7.09025251      16.97406298       5.99367404       53      -0.51309300       0.12606800       0.40560500 
I       6.65664910      17.26201610      13.50627225       53       0.64459200      -0.26882100      -0.01684900 
I       5.95530811      17.05967577      21.88467719       53      -0.06260000       0.18920200       0.07738500 
I       6.02658037      17.18268879      30.29055783       53       0.04938700      -0.13269000       0.00206100 
I      15.41580620       1.29593387       6.42246299       53      -0.29048800       0.27265000       0.22750500 
I      14.68292603       2.11322146      14.53087642       53       0.45497600      -0.38013300       0.03767100 
I      14.79954672       2.63458075      22.61078954       53       0.02567000       0.16026000      -0.13154100 
I      14.83352760       1.89505960      30.06646702       53      -0.33710800       0.16280800      -0.09757000 
I      15.71641814      16.75049845       6.21752717       53       0.22234900      -0.04497800      -0.08557000 
I      15.59604953      17.67230517      14.85458102       53      -0.14810300       0.05598700      -0.53459500 
I      15.14251617      18.26395605      22.05908544       53      -0.13998300      -0.30845800       0.20987700 
I      14.60416494      17.05314763      29.58360447       53      -0.50251800       0.43068900       0.06358500 
I       2.20053494       8.72173590       5.27427357       53      -0.37486700       0.32524800      -0.26887700 
I       2.99948542       9.74674852      13.27241469       53      -0.55821100       0.29057400       0.15514000 
I       2.06439674      10.58624696      21.69792569       53      -0.15475500      -0.22734400       0.01681200 
I       2.25720501      10.20718751      29.56281569       53       0.02024500      -0.35267500      -0.03962800 
I       2.80725436      24.51522941       6.45253417       53      -0.40052600       0.73880500      -0.42816200 
I       2.19236004      23.98117135      14.69912903       53       0.23298300       0.23500100      -0.44265800 
I       2.65211096      24.73164464      23.35062627       53       0.13924800      -0.07580900       0.01413200 
I       2.97112592      25.18411545      31.20366336       53       0.02548500      -0.06231100      -0.23899500 
I      10.76937138       9.33566553       6.78064978       53      -0.04114800      -0.84433700       0.03020200 
I      10.56937486       8.92599263      14.46968848       53       0.46381900       0.19967400       0.27897500 
I      10.40788807       9.91156080      22.40745855       53       0.30187700       0.16957100      -0.00910000 
I      10.48694176       9.91095063      30.69856400       53       0.36865700      -0.14323700      -0.22431800 
I      11.34940004      24.42915625       5.70343202       53      -0.09726300       0.28322500      -0.06499800 
I      11.03130083      24.91875465      13.84687990       53       0.21958700      -0.07282000      -0.32105300 
I      10.99711424      25.94486579      21.92468888       53       0.34715200      -0.53357900      -0.01459000 
I      11.33132857      25.32765061      29.66338318       53      -0.31476900      -0.09871600      -0.01223600 
I       6.09439931       5.45713335       1.44568259       53       0.84856400      -0.35574500       0.42361000 
I       6.98931852       6.89808037       9.30009482       53       0.03007300      -0.12733400      -0.20980500 
I       6.92491794       7.64186174      18.37049443       53      -0.41618000       0.02360700      -0.17703000 
I       6.27385771       6.89000134      25.69012258       53      -0.05290500       0.27794500      -0.42700600 
I       7.71184275      21.38045264       3.34345451       53      -0.44265000       0.47756300      -0.45185400 
I       6.83419309      21.59663918      10.64642527       53       0.30744300      -0.01884000      -0.13284600 
I       6.93948017      23.04907161      18.97633804       53       0.42272800      -0.44702100       0.01620900 
I       6.83798095      21.48341188      27.00014832       53       0.15322700       0.09976000       0.21008400 
I      15.06126845       6.05599045       2.63705939       53       0.45491700       0.70245000       0.57646000 
I      15.36407642       6.50681049      10.72277064       53      -0.09737900      -0.01887600       0.12768000 
I      15.52169846       7.34539418      18.64886356       53      -0.19791300       0.20979900       0.19936200 
I      14.82203120       6.64945786      26.44802079       53       0.24585300       0.53865200       0.00709300 
I      16.00686588      22.06572643       2.07738910       53      -0.09480500       0.18600500      -0.20593800 
I      15.59033828      21.68504118       9.49922451       53      -0.10716700      -0.11305900       0.34871900 
I      15.32748109      22.54767821      18.09349244       53      -0.04930500      -0.09828100       0.10747700 
I      15.23669333      22.69438108      25.36433282       53       0.26925500      -0.25023100       0.33008500 
I       2.06596461      14.13575377       1.63991094       53       0.03561800      -0.71486400       0.07475700 
I       2.32164354      14.57350056      10.96404613       53       0.89914100       0.44500900       0.14141400 
I       1.98383309      14.60885457      19.06819236       53       0.44600200      -0.27872700      -0.11211300 
I       2.00365119      14.76197872      26.05672794       53      -0.73886200      -0.10657200       0.28734700 
I       2.69853494      28.83704687       2.88825940       53       0.25723800       0.26670600       0.61014600 
I       2.62030014      29.07186612      11.33147337       53       0.28820700      -0.22356400       0.08478600 
I       2.34179619      29.69530884      19.55563669       53       0.02328200       0.12487700      -0.23743100 
I       2.50557886      29.43961892      26.98516266       53      -0.51976100       0.22774400       0.02885800 
I      11.05526730      13.57976948       2.19982390       53       0.27985700       0.50203700      -0.07167900 
I      11.35030281      14.34734755       9.94042562       53      -0.09431300      -0.42204600      -0.04862500 
I      11.09191555      15.09027508      18.12366947       53      -0.25659500       0.06687500      -0.15577500 
I      10.01614184      14.19528396      26.32656965       53       0.64563400      -0.75546000      -0.61730800 
I      11.90764227      29.38549539       1.59822453       53       0.47677700      -0.30800000       0.30361700 
I      12.13460918      29.94735870       9.97776793       53      -0.22311100       0.02474700       0.07176100 
I      11.18551250      30.09331857      18.59314520       53       0.69889100      -0.52711200      -0.53430100 
I      11.28588426      30.18578805      25.55249140       53      -0.30536200       0.43724200       0.53528800 
I      -0.35887685      12.55298926       6.32844661       53       0.47254100       0.22713900      -0.06128800 
I       0.73832578      13.49974111      14.53565194       53      -0.74151200      -0.53989400       0.05050000 
I      -1.03222683      13.58531395      22.51388708       53       0.67030100      -0.05149400      -0.28508700 
I      -1.01136015      13.22454267      30.55033221       53      -0.00070400       0.23211800       0.12696000 
I       1.01105856      28.18860108       7.33008696       53       0.18532000      -0.71038800       0.54079100 
I       0.33384183      28.38416662      15.62235282       53       0.11209600      -0.04280500      -0.07900100 
I      -0.55097809      28.93928409      22.96990607       53       0.19513200      -0.22765000       0.44660600 
I       0.80543468      28.62348077      31.52165771       53      -0.19100600       0.26264700      -0.71304200 
I       8.35686218      12.77735669       6.58562750       53       0.25443200       0.07581600      -0.07310200 
I       8.98968717      13.21357256      14.47736905       53       0.11054600      -0.08518000       0.10218700 
I       8.23738037      13.51970002      22.00593259       53       0.28922000      -0.30446200      -0.26040300 
I       7.96973268      13.12245924      30.60844832       53      -0.09384500       0.00495700      -0.27206500 
I       9.48342097      28.45786558       5.94285202       53       0.15658600      -0.82100400       0.66019800 
I      10.00818464      29.08898288      14.56213799       53       0.15375900      -0.18235100      -0.53745000 
I       8.45133994      29.19586480      21.92871541       53       0.14085700       0.13424800      -0.09699100 
I       8.85836643      28.95081344      29.77653258       53      -0.07872700      -0.45405800       0.19609700 
I       4.03980227       5.01869350       5.32133169       53       0.20048300      -0.06636800       0.17024100 
I       4.57668250       5.76331273      13.73260502       53      -0.01043600      -0.23632300      -0.27471900 
I       3.68875978       5.93850492      21.61699555       53       0.39439000       0.35877700       0.08070300 
I       4.09852356       5.53168415      29.37732148       53      -0.20520100       0.14301000       0.13143200 
I       5.00455469      20.76321349       6.84274249       53      -0.63531900      -0.83961600       0.01946100 
I       5.41561371      20.72061332      14.90859470       53      -0.16798100       0.14138900      -0.04868200 
I       4.55674756      20.85903742      22.69206921       53       0.35744100       0.28429000      -0.04408200 
I       3.91771100      21.16347417      31.00936411       53       0.27029700       0.06013400       0.05025700 
I      13.26761021       4.76527949       6.65972193       53      -0.24259200       0.82708900       0.16560700 
I      13.15164962       5.49428192      15.52189818       53       0.06173300       0.10103800      -0.46050000 
I      12.27610011       6.09333575      22.52778022       53       0.19471800      -0.15526600       0.35819600 
I      13.33557795       5.59769255      30.81698924       53      -0.36470600      -0.00598100      -0.14273700 
I      13.11937343      20.69239962       5.75358294       53      -0.02225600      -0.79367900      -0.27769200 
I      13.38166239      21.25452857      13.59223656       53      -0.29388300      -0.58123700       0.21812100 
I      12.82851026      21.68175164      21.89391065       53      -0.29163000      -0.73069200       0.63429300 
I      13.69268520      21.27779499      29.60419452       53       0.64869700       0.08814000       0.38039600 
I       9.24530120       2.30969177       1.43488525       53       0.00073300       0.39483200      -0.30448900 
I       8.86058442       2.98873901       9.15197887       53      -0.00533700      -0.02628400      -0.00494000 
I       9.17647163       3.40139386      17.07649893       53      -0.09906900       0.07259100       0.49612600 
I       7.73503727       3.36777450      25.32136314       53       0.40669300       0.16532500       0.32713200 
I       8.12424495      17.68451459       2.18480829       53       0.11440300       0.05320500      -0.48559300 
I       9.47288527      18.08019349      10.15492745       53      -0.06932500      -0.25347400       0.12027200 
I       8.62355317      18.76503487      17.91647972       53      -0.11700900      -0.18016400       0.14786100 
I       8.99888868      18.12257097      26.31114958       53      -0.37790900       0.01120200       0.12516100 
I      17.45318161       2.45152624       2.07702859       53       0.20786100       0.02806100       0.10993200 
I      17.58168718       2.71651953      10.57679579       53      -0.08962500      -0.03814900       0.11808900 
I      17.41146324       3.14225762      18.37345940       53      -0.11976300       0.72417700       0.08309300 
I      17.75006362       3.19942003      26.37205191       53      -0.26232800      -0.28700900      -0.07410000 
I      17.22742806      18.00258684       2.37339629       53      -0.09780400      -0.56578300      -0.16414400 
I      17.70078451      18.39581905      10.03991057       53       0.11986500       0.13048900       0.18222000 
I      17.77508066      18.93496820      17.99400049       53      -0.01938000      -0.30670700       0.15667900 
I      17.15232300      18.70781654      26.50851767       53      -0.27160200       0.03924900      -0.26228700 
I       4.58435408       9.95508771       1.46022985       53      -0.20190800      -0.02330400      -0.30723100 
I       4.62413209      10.46489269       8.67975988       53      -0.10907400      -0.17098800       0.52753100 
I       4.25603275      10.94697830      17.53807238       53       0.18972900       0.41676100      -0.37066500 
I       4.30163585      11.03649179      25.86690861       53      -0.24183900      -0.18804300      -0.23242800 
I       5.40569517      25.47361248       2.59944545       53      -0.06936200      -0.00154000       0.29347300 
I       5.49640304      25.78599444      10.16076852       53      -0.29602000       0.50985800       0.33146400 
I       4.47492263      26.21041532      18.44710843       53      -0.16201600       0.04921300       0.08193100 
I       5.85014886      25.91103571      26.94829271       53      -0.11739900      -0.04015100      -0.05708700 
I      13.04320383      10.22615276       2.45180286       53       0.38873100       0.15396000      -0.14624600 
I      13.36627328      10.38092767      10.73386358       53      -0.01073500      -0.15357900      -0.03737100 
I      13.39406256      11.12064256      18.49758791       53      -0.23656300      -0.08646900       0.02176000 
I      13.62561525      11.06575207      26.71163296       53       0.07930700       0.04264500       0.10398300 
I      13.53996052      25.78686127       1.88663703       53      -0.02562600      -0.10301200      -0.38108800 
I      14.67597946      25.92049187       9.58780228       53      -0.16536400      -0.11528700       0.21823700 
I      13.00851991      26.71843173      17.89743357       53      -0.15989400      -0.43046200      -0.34547500 
I      13.06855641      26.78319981      26.05985969       53       0.36259600      -0.16419500       0.01269100 
H      -0.70494409       8.93123352       1.54813852        1       1.52865300       0.67551100       1.82552700 
H       1.38777819      11.73183491       9.31559278        1       0.22072400      -0.25799200       0.11314300 
H       1.17101943      11.27977555      17.47251037        1       0.27400500      -0.22641400      -0.50256600 
H       0.11804476      10.04283860      25.81817176        1      -1.06476800      -0.81264700       0.31208000 
H      -0.47173166      26.30496098       1.95611472        1       0.63708700      -0.70271600      -1.17984700 
H       2.01244825      25.99747937      10.91316020        1      -0.55736900      -0.18281600      -0.16458600 
H      -1.42309426      26.21314562      18.58898484        1       1.11527600       0.94565100       0.71562900 
H       0.57871044      26.46902628      25.73398804        1      -0.93633000      -0.76990600       1.88106800 
H       8.34913467       9.15500776       2.79781018        1      -0.57443800      -0.90271000       1.35363000 
H       9.74128693      10.91194885      10.79511943        1       0.34119200       0.24053000      -0.21612200 
H       9.00384396      12.57294617      18.62782912        1       0.52916700       2.29672800       0.24114700 
H       7.12985575      11.48485816      24.88215733        1       0.56059000       0.66934900      -0.32179000 
H       9.99755607      25.28814024       3.40382456        1      -0.27079800       0.85497400      -1.05615700 
H       9.94066829      27.22437095      10.52584895        1      -0.31481400      -1.67338600      -1.27352600 
H       9.92629080      26.99768366      19.15277254        1       3.62294600       1.73867000       2.17083400 
H       9.87507233      26.83933461      24.59525878        1       1.10104600      -0.03131400      -1.62532600 
H       3.37665444       0.93924804       1.80463235        1       0.08110500      -1.85242000      -0.00718200 
H       3.34219822       2.56624252       9.36085035        1      -0.80384900      -0.61567500      -0.12351900 
H       3.96776805       3.35611233      16.75256664        1      -1.40445700      -0.36547700      -1.82265500 
H       3.91384525       2.01998502      25.24698910        1      -0.48935200      -0.67623100       0.25287200 
H       3.18930675      16.49300798       1.73848614        1       1.49382700       0.23183500      -0.07433800 
H       4.55723689      17.08409462       8.68306239        1       0.39849900       0.05484100       2.81616700 
H       3.53958927      19.64480365      18.46001191        1       0.86321200       0.90977700      -0.95824500 
H       3.94167347      17.64989958      26.80879607        1      -1.00530000       2.39549800      -0.66224700 
H      14.55418478       2.63159780       2.35385482        1       1.33220000      -0.91272000       0.29437900 
H      13.88608967       2.11345115       9.41039409        1      -0.47697700      -0.44086300       0.30615100 
H      13.18441814       2.61343146      17.88320389        1       0.28239200      -0.43204100       0.29252400 
H      13.21605819       3.04980212      27.09197367        1       0.82183900      -1.18777700      -0.76178100 
H      13.92420793      17.97983472       1.13911074        1       0.12132700      -0.73140800       0.97806300 
H      13.13260148      16.63322764       9.69418387        1       0.50954300       0.88491200       0.55898800 
H      11.65472858      19.10733223      17.14403326        1       1.46378600      -0.39969300       1.01702300 
H      11.92636385      17.88513227      27.16709470        1       0.00116700       0.91008300      -0.64057100 
H       5.15728737      11.69839730       5.21010767        1      -0.93083100       2.38721000       1.35501700 
H       5.20914298      14.32310046      12.86796170        1      -0.60552500      -0.41916000       0.64831800 
H       4.96591115      14.08694103      21.62716774        1       0.40122300      -0.59291700       0.94683200 
H       3.73982547      12.89494508      29.10697646        1       0.11912500      -1.72741300      -0.96424600 
H       6.23113470      27.12786995       6.89103494        1      -0.16072600       0.81535300      -0.72115500 
H       4.59846792      28.78234911      13.26801067        1      -0.19269000       0.93232000       0.01610200 
H       3.41840377      29.12683550      22.81938539        1      -0.26276500      -0.53815000       0.06723700 
H       6.03056696      28.76892234      29.02871369        1      -2.48206200      -0.29284000       1.33969500 
H      13.70306412      12.91018139       5.49866198        1       1.49170300      -1.94086900      -0.92549000 
H      12.74832610      12.11110308      13.38487304        1      -2.61001200      -4.73657000      -1.79483500 
H      13.69180839      13.35481983      23.81652185        1       0.92622400       0.38501700       0.68865900 
H      13.13051531      13.77893213      29.16684319        1      -0.02200700      -0.18473000      -0.95205800 
H      14.59982882      28.32256424       7.87170775        1      -0.34098500      -0.11452200      -0.76176700 
H      14.91729389      27.64186024      14.73183364        1      -2.18772700       1.30198200       0.55040800 
H      12.66366402      28.74441361      21.38807828        1       0.55518000      -0.18513600      -0.71188400 
H      12.28079873      29.77513548      28.73370415        1       0.00747400       0.18353100      -0.52057500 
H       0.18876077       6.38545622       7.09674770        1      -0.12609400      -1.53236300      -0.36333100 
H       0.83284747       5.92546562      13.17993323        1      -0.88599600      -0.82775900      -0.34376300 
H       0.76491269       7.08222840      21.92740219        1      -1.80339900      -2.47130800       0.73279600 
H       0.39302650       5.00766347      28.79539640        1       0.14017300      -1.21637000      -0.61845600 
H      -0.33824686      20.28164918       5.59936428        1       1.40577600      -0.26589900       1.49130800 
H       0.44684544      19.35588583      13.63029589        1       0.72251500       1.80017900      -0.18021900 
H       0.79364069      20.47623904      21.93011651        1      -2.27363300       0.97556500       0.99484500 
H      -0.56531662      22.49961945      31.21335920        1      -0.26457200       1.30653800       0.60722100 
H      10.36503824       4.02900393       5.60420671        1      -0.35366200      -1.07316000       0.02558000 
H       7.89444987       5.19875208      15.06626168        1      -0.40335600      -0.05696600      -0.22580200 
H       7.15554988       5.03187461      21.57318601        1       1.33306700       1.65278300      -0.74981300 
H       7.92263262       6.05608332      28.80492247        1       0.19126900      -0.21347700       0.85595900 
H       8.53166091      19.73586704       8.17694241        1      -0.82573400      -0.20768900       1.44767700 
H       9.86476532      19.15232216      14.59774565        1      -0.87318100       1.12124300      -0.46529400 
H       9.06931209      19.91814760      20.74483644        1      -0.50127400      -0.55588900       0.03143600 
H       9.23403049      20.15736189      29.80979044        1       0.07832200      -0.39267700       1.69601000 
H       8.47579874       9.17533417       1.11394191        1      -0.17459100      -1.23124100      -1.89038300 
H      10.07304460       9.14634852      10.33203903        1      -1.43384300       1.37702600       0.22563000 
H       9.72280602      11.36933098      17.56531041        1       0.01189900      -0.11628600      -0.04711900 
H       6.96463203       9.87280141      24.92181850        1       1.47883800      -0.33826700       0.34687500 