768
Lattice="17.8052693653 -0.0966146554254 -0.0493114107719 0.379824519482 30.3352183344 0.0955868935384 -0.309375472568 0.348913069316 32.4921298109" Properties=species:S:1:pos:R:3:Z:I:1:forces:R:3 energy=-99806.9571696 stress="-2503.598505 87.361581 -458.49313 87.361581 2141.71125 291.679418 -458.49313 291.679418 2029.693113" pbc="T T T"
I       2.20261061       1.01972116       6.69628887       53       0.17596700       0.09288300      -0.24285200 
I       1.94428467       2.11468759      15.33817431       53       0.21001400      -0.24433200      -0.25431200 
I       2.36615271       2.33903189      23.52927937       53       0.45291800       0.14860100      -0.67984300 
I       2.06700851       0.79834024      31.11487447       53      -0.13231000       0.23253300       0.10626400 
I       2.71582552      15.86062498       5.69723479       53      -0.47314600      -0.06106500       0.09770100 
I       2.45105794      16.70933966      14.67599942       53       0.27516100      -0.19932100      -0.26523400 
I       1.94336170      16.49853159      22.84777247       53       0.32253400      -0.10126100      -0.07650600 
I       2.06756169      16.22614547      30.87689419       53      -0.16089000       0.40010800      -0.23730300 
I      11.65623650       0.82903304       5.29134038       53      -0.19345600       0.79096300      -0.11930500 
I      11.52100923       1.75595436      13.47941858       53      -0.33025500      -0.50020300       0.07587800 
I      11.13832108       1.49780274      21.84654800       53       0.17573400       0.27565100      -0.11250600 
I      11.37061039       1.19369203      30.01528916       53      -0.69710800      -0.06286400      -0.16090800 
I      11.53896181      16.13785669       6.07918133       53       0.44037000       0.35127200      -0.45531600 
I      11.34498788      16.41689405      13.95941260       53       0.14520300       0.38240100      -0.44293300 
I      11.02750820      16.18499066      22.78804842       53      -0.03351700       0.07657400      -0.30698300 
I      10.77011431      16.73781471      30.92727669       53       0.60067400      -1.28617800       0.21831700 
I       6.51712377       8.43736385       5.50929039       53      -0.03408300      -0.07134700      -0.33027300 
I       6.93539162       9.25075275      13.75306018       53      -0.09946500       0.15399600      -0.28034800 
I       6.42511692       8.97670911      22.31317608       53      -0.06674100       0.13789200      -0.37721500 
I       6.57942629       9.17074249      30.33564355       53      -0.44739400      -0.57022300       0.10360600 
I       7.65490555      23.49324624       7.06684438       53      -0.54172800      -0.28328600       0.07134100 
I       6.07917831      24.73221117      14.43727956       53       0.09846300      -0.33899400       0.22301800 
I       6.31935619      24.82596019      22.75444666       53       0.27894100      -0.17297700       0.29581300 
I       7.29136602      23.67962178      31.14181292       53       0.54485900       0.47576600      -0.31864600 
I      15.59014727       8.87418583       6.97956423       53      -0.36853000      -0.42856000      -0.41734500 
I      15.59211614       9.60138077      14.35707282       53       0.00455300      -0.46571400       0.48548000 
I      14.90395600       8.89757245      23.51217116       53       0.52770500       0.54109400      -0.12129700 
I      15.35088128       8.74290134      31.00286757       53       0.25867200       0.08045500      -0.28461400 
I      15.76439724      24.15386437       5.59178743       53      -0.03335900       0.60505000       0.01845900 
I      16.09954334      23.61129275      14.12889658       53       0.30351100       0.06836200      -0.56749000 
I      15.83474755      23.82808602      22.21208562       53      -0.61004800      -0.04152600       0.08968700 
I      15.78009379      23.79036716      30.14455238       53      -0.33189000       0.21332800      -0.17641800 
I       6.40189957      13.57612694       2.43483643       53       0.70968100       0.38872700      -0.52850700 
I       6.75209533      13.54499885       9.73059160       53       0.52455500      -0.00574400       0.05615200 
I       7.03092814      14.04967931      17.79432672       53      -0.31809500      -0.08679000       0.38794800 
I       6.28280212      14.27808629      26.69835896       53      -0.17204100       0.09274100       0.01383700 
I       7.27169647      28.38936784       1.71577895       53       0.31763200       0.21440500      -0.12871400 
I       7.26864845      28.91658752       9.31806108       53       0.30875400       0.17264800       0.51664800 
I       7.00663064      29.29945502      17.90021844       53       0.31291400      -0.11623900      -0.20437900 
I       6.90422424      29.69873850      25.66081117       53      -0.10079900       0.07441500       0.34373500 
I      15.16409261      13.63035448       1.92938716       53       0.19935100       0.06754600       0.16266700 
I      16.21053356      13.53243900      10.48507059       53       0.34369500       0.21210300      -0.11499600 
I      15.98529149      13.66808140      18.53531987       53       0.10152800       0.09437900      -0.26942100 
I      15.31626787      13.77288591      26.86326940       53      -0.64791000       0.20591300      -0.68503000 
I      15.70237181      29.16775640       2.59585447       53      -0.13222200      -0.22946000       0.31771000 
I      15.89808488      29.41690100      10.77987804       53      -0.02747100      -0.18908300       0.56552000 
I      15.99636814      29.77414700      19.52293556       53      -0.10479500      -0.07700900      -0.12886500 
I      15.74017028      30.31786125      26.43921989       53      -0.21877900      -0.11990100       0.08410400 
I       2.08737331       6.06312709       1.23486095       53       0.04541800      -0.56829200      -0.23332400 
I       2.43096620       5.75071065       9.94919353       53       0.08342600       0.56138600      -0.43956000 
I       2.61136965       6.33596966      17.57296797       53       0.34297100       0.15975100       0.32312900 
I       1.95736445       6.63958059      26.26932984       53      -0.22347700      -0.28662600       0.03169400 
I       2.90450850      20.84022805       2.42998983       53       0.14669700       0.08829000       0.16178500 
I       2.26533431      20.99840867      10.45166732       53       0.27123000       0.09801400      -0.01704400 
I       1.69860323      22.42401416      19.19426437       53       0.44966700      -0.00022200      -0.42251900 
I       2.20375626      21.78091533      27.09627108       53       0.27261700       0.01418500       0.03377800 
I      11.05471568       6.29532369       2.11388352       53       0.00261100      -0.18841200       0.51510100 
I      10.91357072       6.00008599      11.26271252       53       0.45345300       0.45017600      -0.11707100 
I      11.27414183       7.22313271      18.67880651       53      -0.04355000      -0.40423600       0.24836400 
I      10.48731051       6.44332745      27.33942947       53       0.20168400       0.03115800      -0.08170300 
I      11.30481851      21.23931001       1.80268024       53      -0.18174400       0.03284600      -0.13599800 
I      11.34614058      21.28918971      10.08447218       53       0.12602600       0.04261500      -0.39340200 
I      10.96166192      21.68632597      18.32207842       53       0.02955000       0.02398000      -0.14277700 
I      10.53141258      22.34818044      26.10971942       53       0.28698100       0.03617900      -0.11516700 
I       7.67589507       1.40070242       5.34456736       53      -0.23797600      -0.29119900      -0.13214500 
I       6.58216397       1.21503320      13.99867008       53      -0.08704800      -0.30773200      -0.26330400 
I       6.33784482       1.56607233      21.19566640       53      -0.11131600      -0.05637800       0.70571600 
I       6.15567805       1.19372629      30.17191705       53       0.36048700       0.07442300       0.05360900 
I       6.67957363      16.17481985       6.13270254       53       0.21409300       0.11730900      -0.03973800 
I       7.06174588      16.63561991      13.37854475       53       0.25054000      -0.28781700       0.21537700 
I       6.85635573      17.30346966      22.28816016       53      -0.04958600      -0.45479900       0.08734800 
I       6.36423412      16.74629878      30.33942712       53       0.18948900      -0.32498800      -0.05070600 
I      15.67398342       1.09414724       7.08604943       53      -0.10051500       0.09329800      -0.66970300 
I      15.57700602       1.17590570      14.79551805       53      -0.04057700       0.26476500       0.20891100 
I      16.10208554       2.11969138      22.80773913       53      -0.68940800       0.16343200       0.33490200 
I      15.32378766       0.85727433      30.85038902       53      -0.36581500       0.48088600       0.25210600 
I      15.81700757      16.38716654       6.03863411       53       0.30982100      -0.24991500       0.16432900 
I      15.92405098      16.23424867      14.79661433       53      -0.32449800       0.03083200      -0.25481000 
I      15.46955251      16.40504355      22.29425116       53      -0.27509300       0.11791800       0.19362600 
I      15.16119271      16.98224772      30.19513237       53       0.26712700      -0.30245000       0.03347000 
I       2.20068506       8.63930798       5.01474951       53      -0.16734500      -0.12428000      -0.08665700 
I       2.15970256       9.20485109      13.67512963       53      -0.01888600       0.17167300       0.08102100 
I       1.77709200       8.63730485      22.04177641       53       0.54159100       0.21420700      -0.16555000 
I       1.93994993       9.27865850      29.77950547       53       0.11524000      -0.18823400      -0.13133000 
I       2.32630880      23.30744099       6.24923461       53      -0.21791300       0.48474200       0.26602300 
I       2.12008737      23.55016107      14.50089499       53      -0.00603300       0.17991900      -0.05238000 
I       1.95412600      24.44616489      23.04141289       53       0.42990900      -0.05775100       0.09301100 
I       2.98960920      24.72364145      30.63760503       53      -0.01796300      -0.57671400       0.07730600 
I      11.25817424       8.68217976       7.02248437       53       0.03629700       0.05250700      -0.26499300 
I      11.23313917       9.15463484      14.96788178       53       0.21212900      -0.22007700      -0.07794900 
I      10.68845258       9.36923757      22.89258188       53      -0.08056900       0.25230800       0.01520600 
I      10.70528268       8.96869357      30.88095788       53       0.56426500      -0.27343300       0.19562900 
I      11.69808152      24.45009557       5.64668603       53      -0.66694000       0.37480600       0.22433900 
I      11.19782749      23.60580128      13.16123156       53       0.31942000      -0.11509200       0.59776400 
I      11.45925787      24.81195542      21.85251507       53       0.06149600      -0.11996900       0.05602300 
I      11.43426512      24.20229110      29.88518659       53      -0.67093300       0.48181400       0.50726300 
I       6.47812323       5.54372747       1.07540470       53       0.29516500      -0.17917600       0.26809700 
I       6.44329722       6.63003148       9.28672744       53       0.54321500      -0.30148400       0.38263500 
I       7.38407821       7.05170706      18.23826142       53      -0.61716200      -0.12624300      -0.08612300 
I       6.79356451       6.51863619      25.81535129       53      -0.59374700      -0.14709200       0.15190500 
I       7.39247562      21.47029949       2.42222518       53      -0.17455700      -0.05755700       0.34001900 
I       7.08052873      21.10783508      11.14055999       53      -0.09464500       0.14756100      -0.27830900 
I       6.39002086      21.66947773      19.02384835       53       0.30097500       0.04428500      -0.27864400 
I       6.30526477      20.80321250      26.75647285       53       0.34867000      -0.01862400      -0.10853400 
I      15.99756720       6.42729839       3.10459459       53      -0.33835300      -0.37503500       0.04213100 
I      15.53725784       5.74370978      11.05667145       53      -0.08235300       0.56037000       0.02271200 
I      15.76966503       7.42517357      19.27410937       53       0.13464500      -0.27068000       0.17119500 
I      15.05081511       6.18366945      26.40547403       53      -0.19457400       0.42324200       0.99851100 
I      15.67023914      20.50711128       1.58568243       53      -0.32111300       0.32822700      -0.04188800 
I      15.60097706      20.92700944       9.02984742       53      -0.02108600       0.27685400       0.20151100 
I      15.68581477      21.69393342      18.08125769       53      -0.24464800       0.04680700      -0.22628100 
I      15.57347939      21.10775245      26.20563681       53      -0.06428900       0.53274000      -0.34301800 
I       2.31478679      12.81500981       1.43015888       53      -0.44766900       0.21936100       0.17657700 
I       3.03226837      14.02765296      10.53066997       53      -0.12046200       0.04788400      -0.31255500 
I       2.76066617      13.60740113      19.51341264       53       0.04981500       0.20062800      -0.19223800 
I       1.99194663      13.46914599      26.49499108       53      -0.51582000       0.29831200       0.13011800 
I       2.36905060      28.71309772       3.11989716       53      -0.16652800       0.00444500      -0.30680900 
I       2.25760091      28.40284562      11.51564169       53      -0.00081200       0.17692600      -0.18378900 
I       2.70369591      29.52400487      19.21161440       53       0.24688500      -0.21072100       0.01274600 
I       1.95669439      28.28018728      26.87199933       53      -0.15505800       0.27796800       0.28633400 
I      11.08699143      13.81538184       1.96552911       53       0.10969800      -0.23530900      -0.00621600 
I      11.30112260      13.07865391       9.65122420       53      -0.12929800       0.25452100       0.19995000 
I      11.53745241      14.98078926      18.23291806       53      -0.40750900       0.03399000       0.14561500 
I      10.48669184      13.49818631      26.96500574       53       0.31198900      -0.29726300      -0.62642400 
I      11.73212462      28.38441040       1.28492605       53       0.26734200      -0.21065400      -0.00934400 
I      11.68526372      29.08329352      10.24179230       53       0.14432100      -0.27167800      -0.11023100 
I      11.22338350      28.96973691      17.91858817       53       0.38983600      -0.23956200       0.32542400 
I      11.49388942      29.68905033      26.32207417       53      -0.58020900      -0.01757500      -0.43552700 
I       0.10608820      12.20403963       6.77300122       53       0.12147600       0.44182700      -0.20639300 
I       0.27447187      12.63848768      14.74579453       53       0.19719800       0.40961200       0.07273100 
I      -0.22905084      12.43084552      22.73919850       53       0.02870700       0.00091900       0.21106800 
I      -1.07597198      12.69464680      30.38958089       53       0.08282700      -0.23070300       0.08959700 
I       0.86602642      27.43611365       7.18084232       53      -0.24445400       0.30851500      -0.23661600 
I       0.38570694      27.90244247      15.44538701       53       0.15123900       0.32273700       0.19869400 
I      -0.32516572      28.14522602      23.38730817       53      -0.02950200      -0.26398900      -0.64724300 
I      -0.15795592      27.71440033      31.07159260       53       0.21580100      -0.25550700       0.24867100 
I       9.22811176      12.51249012       5.36783811       53      -0.03354400      -0.35938900       0.71912600 
I       9.76946014      12.92384577      14.81636650       53      -0.37782100      -0.30837200      -0.15428700 
I       8.32984585      12.86817835      22.31611528       53       0.20553800      -0.00535200      -0.00348300 
I       7.93643473      12.70769333      30.74365494       53       0.16061000      -0.56346100      -0.27764900 
I       9.28942380      27.96893060       5.62545167       53      -0.16934300      -1.76200400      -0.59957500 
I       9.67939394      27.73698187      13.61530583       53      -0.03737700       0.23003200       0.29317000 
I       9.08176451      28.19336357      21.76461624       53      -0.07741100       0.08691200       0.29963600 
I       9.45857628      27.76479190      29.89529292       53      -0.10655700      -0.01302900      -0.15422800 
I       4.60339587       4.43981850       5.37988912       53      -0.02581100       0.44657200       0.00266200 
I       4.80179221       5.46556819      13.28408336       53       0.05146300      -0.25135800       0.28958500 
I       4.92395178       5.16996070      21.82775608       53      -0.08942800       0.14339400      -0.27310500 
I       3.45183503       5.12309778      29.84729140       53       0.22848200      -0.02579900      -0.09936500 
I       4.56967218      19.75606823       6.59038203       53      -0.03474400      -0.53366300       0.27287900 
I       4.63844155      20.22623403      15.02924118       53       0.02447700       0.00759500       0.00222700 
I       4.05681195      20.59346847      22.44932632       53      -0.00888700      -0.42734000       0.20520600 
I       5.81841396      20.10294291      31.46275776       53      -0.96335000       0.31982500      -0.22784900 
I      13.65907135       4.86658655       7.25966864       53       0.00445800       0.58264300      -0.47019500 
I      13.93416089       5.31788082      15.01087749       53      -0.04834000       0.17023100       0.46710200 
I      12.74597746       5.19506328      23.00465932       53       0.35209300       0.10193900      -0.04664200 
I      13.07708809       4.80321193      30.98271437       53       0.11902100       0.31518600       0.01785200 
I      13.27310848      20.26401939       5.53220444       53      -0.09802900       0.03801000       0.08397300 
I      13.77634301      19.68301149      13.65964771       53      -0.08060500       0.08553800       0.11907100 
I      12.74633819      20.45191946      22.18999076       53      -0.12687700       0.10900800       0.16055300 
I      13.50236789      20.46611769      29.51001219       53       0.23232000      -0.47172800      -0.60910600 
I       9.58670997       2.12172474       0.98600150       53      -0.13532400       0.11707900       0.24464200 
I       9.05953463       2.41617247       9.32272933       53       0.11002900       0.17688000       0.24848000 
I       8.49625461       2.94075524      17.58658582       53       0.56775100      -0.20773400      -0.05960300 
I       9.02252008       2.95224804      25.90172863       53      -0.07758100       0.23281500      -0.05095900 
I       8.51440468      17.49954648       1.63398018       53      -0.13254500       0.36131400       0.40789200 
I       9.51510721      17.21548821      10.06630700       53       0.04379000       0.06460500      -0.18659600 
I       8.29901300      18.23990181      18.59727577       53       0.35954300      -0.53208500      -0.20697700 
I       9.12859015      17.84175390      26.63553147       53      -0.22356900      -0.45976700      -0.08646000 
I      18.30619547       2.73368339       2.47457252       53      -0.18515700      -0.85726200       0.00142600 
I      18.47524215       2.60735231      10.62519988       53      -0.35384600      -0.68099600       0.21506400 
I      18.17824617       3.00418024      19.25215960       53       0.00540000       0.26957600      -0.39832200 
I      18.66004784       2.40246596      27.18544656       53      -0.15193500      -0.17627200       0.22563300 
I      17.44494612      17.08543602       1.78701191       53       0.44564800      -0.05242400       0.51738100 
I      17.63674261      17.45980131      10.45752053       53       0.23640400      -0.05483600       0.08561700 
I      18.10081036      17.83395601      19.36938995       53      -0.03378800      -0.33639800      -0.91580200 
I      18.07841522      17.66646307      26.31335936       53      -0.24209600       0.62796600       0.51924200 
I       4.92758421       9.69684977       1.24789135       53      -0.10208700       0.24839600       0.20518600 
I       3.80301824      10.06856807       9.10859413       53       0.03545900      -0.07419400      -0.10810900 
I       5.06811554      10.41233931      17.43022192       53      -0.40326600       0.58983000       0.38277200 
I       4.41777200      10.25238429      25.70411219       53       0.06923200      -0.34981200       0.47569300 
I       4.84787826      25.23724631       2.55859710       53       0.25377900      -0.38743000       0.30970400 
I       4.74262536      24.78685687      10.51677805       53       0.05196700       0.43946500      -0.32067000 
I       4.14764796      25.78529530      18.65444352       53       0.20583300      -0.32063000       0.28653200 
I       4.72184039      25.10088045      26.91886830       53       0.35904500       0.05135800       0.24969700 
I      13.48009670       9.82466204       2.19630095       53       0.04304300       0.26044500       0.37535200 
I      13.97745083      10.46985065      10.92975898       53      -0.09069500      -0.38036300      -0.36244400 
I      13.35630378      11.04812793      19.00160335       53      -0.13672500      -0.37369000      -0.27128400 
I      12.93066527      10.13539174      27.06675618       53       0.15246300       0.42163800       0.28729300 
I      14.03397269      24.68238891       0.96073267       53      -0.15855400       0.25533400       0.25633900 
I      14.07445946      25.13755139      10.15501595       53       0.15719000       0.72254700       0.58813200 
I      13.51209032      25.53945869      17.12386223       53      -0.24212400      -0.58652800       0.04645600 
I      14.00896180      26.10130991      25.72728016       53      -0.55730000      -0.47641600      -0.08197300 
H       0.34428411       7.86991233       1.73880585        1      -0.37882400       2.91909700      -0.73289500 
H      -0.88911479       8.98442941      10.03816345        1       0.75939200      -1.58773400       0.83231700 
H       0.84557094      11.18355470      17.85026115        1       0.63445700       4.07523800      -1.39575500 
H      -1.46451736       8.71987041      27.13162005        1      -0.45402000      -0.53713000       0.71791800 
H       1.26064467      23.40507132       2.62791460        1      -0.08627100      -0.27434500      -0.90172800 
H       1.23732153      25.03300282       9.55051562        1      -2.45874200      -0.40912700       1.44271500 
H      -0.71872396      26.44570990      18.79136861        1      -0.52644300       1.93011300      -2.20767600 
H       0.27018046      25.14359302      25.63038337        1       1.76465400       0.25026600      -2.30654000 
H       9.18939033      11.13198624       2.85809296        1      -0.82832300      -1.45373600      -0.92189100 
H       9.05609364       8.64518134       9.98583929        1      -0.88197000       0.25782400      -0.36613000 
H       8.56726288      10.94744555      17.09624667        1       0.56003100       0.33482400       1.44519500 
H       7.95561458      11.02780142      26.71862502        1      -0.47495500      -1.43524000       1.15866300 
H       9.85920290      25.37177329       2.81112625        1       0.87833100      -0.32142900       1.07729800 
H       8.75816864      26.25662892       9.92172004        1       0.77308000      -0.20219000       0.54716200 
H       8.54575444      25.84202171      18.38273048        1       1.09445100       0.23562100       5.09324100 
H      10.21822028      25.85317394      26.32243893        1      -1.18688100      -1.48558200       1.19503000 
H       4.56131910       0.70923329       1.75700832        1       0.48231800       0.04036800       0.23599300 
H       4.12374545       2.78600654       9.38956408        1       0.86143000       0.34784400       1.49783400 
H       4.69308926       2.40114498      16.54766062        1       0.59395700      -0.28890100       2.58970800 
H       3.93135648       3.24237816      27.24902169        1      -1.34899000      -0.71792100      -0.69537400 
H       2.88142718      16.43291605       2.51195081        1      -0.41260500      -0.71284900       0.82281100 
H       3.82325810      18.03038952      10.16922324        1       2.09409400      -0.88026900       0.39237500 
H       5.28609678      18.02161929      18.77995843        1       0.77012600      -1.12145000      -1.75092900 
H       4.97302943      18.17543393      25.18484154        1       2.54374700       0.92249500       0.36239700 
H      14.83530554       2.19547068       2.05016027        1      -0.66094500       0.24466300       1.03462600 
H      12.73045322       2.94287223       9.53139220        1       0.29798000       0.09866400      -0.45919700 
H      12.88578230       2.67415280      18.52483368        1       0.28628500      -1.07634200      -0.84729800 
H      12.65498426       2.73379422      27.53815529        1       1.15431600       2.28842500      -1.55289600 
H      12.34809053      17.22404281       0.82125228        1       1.13699600       0.02470300       1.00011400 
H      14.45728968      18.60983865      10.40029434        1       2.07388900      -0.98515900       0.39948800 
H      14.03661968      17.26398446      19.52873536        1       0.40782200      -1.34929300      -0.14018700 
H      12.72260394      18.91337100      26.67753973        1      -0.87711500      -0.57261900      -1.81251500 
H       4.60482265      11.03042221       4.71259356        1      -0.61227000       0.78922700       0.70319000 
H       4.72225754      13.82497328      13.03186354        1      -0.55942100      -0.03921800      -1.43847300 
H       5.57936864      12.68488206      23.28157666        1       0.57310800      -0.64072500      -0.02104900 
H       5.05452188      13.64271483      29.22678218        1      -1.63335100      -0.14710000       0.48779500 
H       5.72106879      27.26094171       6.13218362        1       0.25846900       0.80657400      -0.79848200 
H       3.50393248      29.42469788      15.15164561        1       1.37353100       0.34388800      -0.35133400 
H       3.47401856      28.56194417      23.93062038        1      -0.69207300       1.51431500       0.89392100 
H       4.87267251      29.18265290      31.70037833        1       0.88238400       1.79790700       0.49111500 
H      13.31977491      12.14658875       5.58300107        1      -0.84314800       0.05984300       2.05387200 
H      14.85603308      12.66021678      14.07977661        1      -1.29769700       0.82579600      -0.78091800 
H      13.88010767      12.18632686      23.16781249        1       2.25575700      -0.39536200      -0.92167200 
H      12.40550917      12.49111670      29.54648464        1       0.08555100       0.57677400      -0.53495500 
H      12.87316904      27.01755460       7.32150061        1       1.19462700       0.66974700      -0.68772900 
H      15.03907041      27.82765062      15.15328700        1       2.90118900      -2.29496400       2.20424700 
H      13.00306505      28.39123494      21.47670285        1      -0.02225500      -0.08344100      -0.56900800 
H      13.97160266      29.07995430      29.15001239        1      -0.74639000      -2.39165300      -0.30223100 
H       1.48790499       4.58652244       6.11441039        1       2.21686600       0.45242300      -0.62789500 
H       0.07617126       6.59971250      14.06126279        1       0.21263800       2.43469000      -0.39230600 
H       0.06606897       6.55925596      22.38968590        1       0.68970400       0.47903800      -0.64921500 
H      -1.30932330       4.12947270      29.67439062        1      -1.09266900       0.27868500      -0.45932800 
H       0.35150867      19.24987938       5.09810704        1      -0.73598500       1.76715200       0.48457900 
H      -0.29370815      20.14579856      13.83529624        1      -0.45175000      -0.27036100      -2.62776400 
H       0.29041830      20.53853157      20.82819316        1      -0.02968400       0.97562400       0.07261300 
H      -1.01363923      21.37826140      29.83798310        1       0.65033400      -1.48796800       0.47475000 
H      10.16796373       5.40155172       7.16035863        1       0.92529700       0.65188000      -1.45751100 
H       9.35231980       3.56479211      13.20797356        1       0.08405100       0.68200900      -0.25610800 
H       8.93224833       6.79617422      21.55915051        1      -2.22155900       4.59754800      -1.57309400 
H       7.99635123       5.78516989      31.10110649        1      -0.31148600      -1.15203800      -2.38886100 
H       7.60310132      19.92785964       6.32983634        1      -2.90274100       1.61005000       0.83642800 
H       9.12773973      19.89600708      15.32837027        1      -1.19648100      -0.16834300      -0.35143600 
H       7.75259130      20.04579834      23.22108481        1       0.30988400       0.22671100      -0.32412600 
H      11.24511461      19.66571285      30.38657015        1       0.05297600       0.02828500       0.90308200 
H      10.52087701      10.49773625       1.72395368        1      -2.64932900      -1.11812300       1.06759300 
H       8.52539267      10.36200014      10.44175345        1       0.43714300       0.05535100       0.31819000 
H       8.80224653       9.45142729      18.01899850        1       0.64854300       0.44832500       0.02867100 
H       7.23143239       9.54249807      27.96347137        1       0.62623900       1.72906000      -0.72404800 