768
Lattice="17.3627753961 -0.183310140564 -0.585179791019 0.183458155944 29.885354128 0.894092822618 -1.30175086119 1.19097220384 31.8757554249" Properties=species:S:1:pos:R:3:Z:I:1:forces:R:3 energy=-99801.2323205 stress="-1473.486639 197.655271 224.401759 197.655271 -792.223249 -1369.466587 224.401759 -1369.466587 2129.138976" pbc="T T T"
I       2.21880778       0.80597137       6.82507896       53      -0.23578800       0.47946300       0.00354500 
I       2.13090835       0.73213143      14.62066418       53       0.38664100       0.27069600       0.09592500 
I       0.73173574       1.76379074      22.33636155       53      -0.06308100       0.35485700       0.01090000 
I       1.17583220       2.13878277      30.49689052       53      -0.28930000       0.17228000       0.03272000 
I       2.07245017      16.04763408       7.07159463       53      -0.34940000      -0.02329500      -0.44168600 
I       1.36636747      17.28939332      14.64833911       53       0.42728100       0.00652700       0.11078400 
I       0.63027120      17.86066460      22.06524770       53       0.51223300       0.13331800       0.40219400 
I       0.49047067      17.36504793      30.52850562       53       0.02835400      -0.70289800       0.04300300 
I      10.82710499       1.38939570       5.07812152       53      -0.67083000      -1.14832400      -0.13259600 
I      10.90929003       1.71281720      12.32589293       53       0.03812800       0.03783700       0.37597200 
I       9.72727473       1.89229177      21.42580448       53      -0.10617100       0.32501800      -0.11127900 
I       9.66831429       1.97479850      29.19058967       53      -0.12071400      -0.04033700      -0.01174400 
I      10.88285646      15.41586694       6.08989348       53      -0.58189000       0.30576900      -0.07095700 
I      10.76803402      16.33231502      14.32827164       53      -0.10247200       0.20486000       0.14094500 
I       9.79999666      17.04599979      21.86013884       53       0.02257100      -0.18037700       0.00899400 
I       9.48880913      16.79782635      29.52209478       53      -0.34119200      -0.12368000       0.27749200 
I       6.47675338       8.15909224       5.10086063       53       0.04858600       0.01920600       0.37371800 
I       7.09592934       9.06818494      13.03136088       53      -0.52170500      -0.26848900       0.51990900 
I       5.66574751       9.23370857      21.62937990       53      -0.31462300       0.40764400      -0.44850400 
I       5.12775897       9.59818164      29.59351220       53       0.41436500      -0.27577800      -0.24564400 
I       6.55698364      24.29846230       7.02217328       53      -0.05258400      -0.16655200      -0.27712900 
I       6.77487116      24.05513587      15.36472565       53       0.65122900      -0.05273400      -0.70597300 
I       6.34527724      23.75324666      23.15090794       53       0.43034300       0.25689300      -0.40340800 
I       6.08412877      23.97135423      31.11758315       53       0.67885100       0.30509800      -0.01250100 
I      14.81464228       8.44529281       6.13998978       53      -0.02006700      -0.05799600       0.10040500 
I      15.27056517       8.15511852      14.40240958       53       0.18279600      -0.10812400      -0.05625400 
I      15.43795379       8.90506213      21.73190029       53      -0.52424100      -0.04703300       0.03805500 
I      14.73580633       9.28038571      30.59128684       53      -0.33592700      -0.35974300      -0.27096100 
I      15.00953610      23.24920891       5.83208127       53      -0.11500000      -0.01254100      -0.04227700 
I      14.47631366      24.49099775      13.78630346       53       0.46961400       0.11824300       0.13962700 
I      14.39052789      24.47891377      21.52923171       53       0.00380500       0.00759100       0.22312500 
I      14.72152087      24.86568487      29.41013990       53       0.15190200       0.17713100       0.45824000 
I       5.99537579      13.12063487       2.37499361       53      -0.04302400      -0.13938100      -0.04101400 
I       6.43135016      13.90297905      10.37660044       53       0.30942000       0.07926900      -0.04414000 
I       5.61563937      14.33862383      18.04029310       53      -0.05244000       0.05302800      -0.11179900 
I       5.42173824      14.03863317      25.64954373       53      -0.38193400      -0.34130900      -0.20819500 
I       6.41189008      28.83645597       1.94921947       53       0.29345500       0.04149800       0.47506500 
I       6.32090503      28.83358940      10.31556383       53       0.32332600      -0.33257600      -0.24736600 
I       5.49718464      29.95733499      18.35403045       53      -0.30344500       0.05606000      -0.53690400 
I       5.55147273      29.02762474      26.02247440       53      -0.00867200       0.10607800      -0.11297300 
I      14.70410834      14.01858399       2.35287616       53      -0.01522700      -0.18952300      -0.14226600 
I      14.38125720      14.04766605      10.49600445       53       0.57573500      -0.05796200      -0.05280800 
I      13.87795063      15.06782357      17.50794592       53       0.28763400      -0.30990600      -0.05675100 
I      13.35650922      15.08436084      25.55445766       53       0.57864400       0.25818100       0.08821900 
I      15.35442970      28.28156407       2.87331008       53       0.59008900       0.12333400      -0.20236400 
I      15.36840827      28.09202840      11.04062013       53      -0.80073100       0.40717400       0.04650700 
I      14.54392018      28.87386241      18.27747985       53      -0.36766600      -0.04191800      -0.00025800 
I      14.44896732      28.90781418      27.28674382       53       0.02470300      -0.04496200      -0.35081000 
I       2.08477196       5.94919795       1.44368182       53      -0.17297200      -0.23721800       0.02548200 
I       2.45285956       6.43135805       9.77456170       53       0.06561000       0.11115700      -0.04820800 
I       0.99213328       7.84720509      17.25037844       53       0.16199600      -0.58427200       0.14568900 
I       1.04235983       7.36937986      25.55726996       53      -0.21776300      -0.45559100      -0.86267400 
I       2.29671123      21.75817894       2.65355164       53       0.71303900      -0.12561600       0.22777400 
I       2.40537327      21.57367974      10.91472614       53      -0.11962500      -0.12802800       0.27637800 
I       2.15814515      20.90943605      19.32395352       53      -0.19476000       0.34052100       0.18024200 
I       1.72132216      22.32252902      26.97575857       53      -0.39596700      -0.30227200       0.02558000 
I      11.03688718       5.75994845       1.61149574       53      -0.34004400       0.05991400       0.30859800 
I      10.96611906       5.67118165      10.39688250       53      -0.12907900      -0.11746400       0.03882000 
I      10.34362755       7.24702739      18.21610873       53       0.04999600      -0.09372600       0.06824700 
I      10.39959513       6.82556050      25.95874885       53       0.40931200       0.36251400      -0.16043800 
I      11.43488179      20.94032489       1.43660077       53      -0.39021700      -0.32073800      -0.46081600 
I      10.69273959      21.77746929       9.77261480       53      -0.12083300      -0.31138700      -0.21988900 
I       9.98752425      21.83771944      18.01468940       53      -0.16892200       0.14707300      -0.15308800 
I      10.45785398      21.78997461      26.29577888       53      -0.01862200      -0.06992800      -0.58599300 
I       6.07548961       1.49368043       4.97741482       53       0.50084000      -0.12125900      -0.07644800 
I       6.63664255       1.79249980      12.68926773       53      -0.33781100       0.23209700      -0.12355700 
I       5.24432404       2.67245321      21.53545921       53       0.05597200      -0.39447000      -0.19041800 
I       4.56538539       1.71978576      28.69938484       53       0.70030300      -0.10528000       0.01085300 
I       6.01411059      15.74590670       6.03416174       53       0.14296500       0.31763600       0.11068700 
I       6.16555006      16.70184923      14.14977594       53       0.03705700      -0.13357900      -0.18983700 
I       5.57411612      16.86602690      21.88059456       53      -0.47369100      -0.01747800      -0.57658800 
I       4.76252313      15.96397776      29.97086064       53       0.20315300       0.06779200      -0.06880100 
I      15.22255096       1.09969704       6.01722187       53       0.07634100      -0.05541300      -0.21491900 
I      14.93058174       1.68113698      13.28082896       53      -0.36174000      -0.06991300       0.41340000 
I      13.51832556       1.12684109      21.52551455       53       0.25006200       0.96826400      -0.05894000 
I      14.17183319       1.65503792      29.90289000       53      -0.29733800       0.17177700       0.58998000 
I      14.87380501      15.65841481       6.50159924       53       0.00605800      -0.08059500      -0.54724600 
I      14.75584958      17.46648681      13.08898425       53      -0.33881300      -0.17884300       0.17281300 
I      13.74630871      17.37786211      21.94544997       53      -0.42588800       0.07199200       0.43351900 
I      13.21171663      17.02116182      30.13552084       53       0.68909200      -0.15698000      -0.12700100 
I       2.25860319       8.67539653       5.86974527       53      -0.28777500       0.14037900       0.36317200 
I       1.75040127       9.12766048      12.85020485       53       0.45766500      -0.16509500       0.51481800 
I       1.57382089      10.19271107      21.27430679       53      -0.55854600       0.53919700      -0.82635500 
I       0.81404018       9.14597492      29.31606231       53       0.13672100       0.13222800       0.06012000 
I       2.46696642      24.32530243       6.24386006       53       0.19306500      -0.01866300       0.16823500 
I       2.56758924      24.89600533      14.45870575       53       0.03403500      -0.49865100       0.40231300 
I       1.60786344      24.12550041      23.35658716       53       0.75960300       0.04672600      -0.18705400 
I       1.42468652      24.64552087      30.52519304       53       0.15775600      -0.10520100       0.37381800 
I      10.47009781       8.08195255       6.63392795       53       0.15160400       0.01700700      -0.18213400 
I      11.32021428       9.18598742      14.35543443       53      -0.15636600      -0.47396700      -0.03241800 
I      10.86721814       9.94778509      22.61606128       53      -0.63343700       0.11818800      -0.59851900 
I      10.22747396       9.46395537      29.96687212       53       0.13314600      -0.10984600      -0.18698100 
I      10.73323067      22.58567471       4.97093964       53       0.43915100       0.23410100       0.13143400 
I      10.36788628      25.19001913      13.43296311       53      -0.01897700      -0.42387100      -0.00386200 
I      10.11174172      24.43026112      21.69952439       53      -0.13381100       0.13020600       0.20572600 
I      10.04941442      24.99976608      29.79770830       53       0.15614900       0.03341900       0.05711900 
I       6.32031691       5.85001975       1.87454473       53       0.63508800      -0.51987500       0.73521700 
I       6.97342886       6.48717662       9.44671947       53      -0.43151000      -0.21253900       0.23962500 
I       5.62099852       6.85322557      17.60524531       53      -0.24759000       0.18598100      -0.17863900 
I       5.31055500       7.44784282      25.19246138       53       0.12757100      -0.36349300      -0.03955500 
I       6.91025688      20.84159172       3.03063069       53      -0.15096900       0.20278000       0.03425300 
I       6.81207236      21.96667439      10.08866415       53      -0.07341600      -0.01486600       0.47928900 
I       6.04266670      21.41116773      19.04190627       53      -0.06669000       0.38627300      -0.12471900 
I       6.02834473      21.41525394      27.63218113       53       0.30694500      -0.14393600      -0.44578500 
I      15.77041903       6.01587296       2.38187336       53      -0.01514300      -0.20997500       0.66773100 
I      15.33584588       6.08200031      10.52750607       53      -0.19694200       0.15554900      -0.51228800 
I      14.44521267       6.06767439      18.82512196       53       0.33669400      -0.43342000       0.05095300 
I      14.80741025       6.88694347      26.22376545       53      -0.16956300       0.32525300       0.07051400 
I      16.06643400      21.33196076       1.43250765       53      -0.34941800      -0.03661100       0.22067200 
I      14.83358825      20.94050744      11.21177229       53      -0.27119000       0.34543200      -0.35997600 
I      14.32784733      21.48809527      17.55242750       53      -0.00424800       0.87977500       0.11656200 
I      14.95157526      22.60603669      25.64434346       53       0.03078300      -0.18170100       0.52442700 
I       1.77366139      13.64460537       2.84904937       53       0.40757100      -0.12449400      -0.53578900 
I       2.34000277      14.49272363      10.47938824       53       0.00944200      -0.32992800       0.71308800 
I       1.26808920      14.27401709      18.47347393       53       0.07267000      -0.19068000       0.10226700 
I       0.20856156      14.62885140      26.63406211       53       0.26127700       0.05993300      -0.11333300 
I       2.80924606      28.50128205       3.78159757       53      -0.57314300       0.08850400      -0.55021200 
I       2.21191914      28.85089931      11.66044638       53       0.21052200       0.15573700      -0.12752400 
I       1.06421775      28.76459055      19.64652147       53       0.21274100       0.00526600       0.02630100 
I       1.42037236      29.51816152      27.24231158       53      -0.51685600       0.06717200      -0.25154600 
I      10.46337298      12.91986385       2.67761204       53      -0.06680200      -0.05111200      -0.27483400 
I      10.65599526      13.98175086      10.12654819       53      -0.02155200      -0.18905200       0.52390200 
I       9.96387041      13.73347578      17.96603379       53       0.00480400      -0.05243000       0.57527700 
I       9.53889556      13.61365240      25.54006267       53       0.31359100      -0.02222900       0.28380100 
I      10.74806280      28.65333134       1.91089632       53       0.01054300      -0.22922900       0.08884900 
I      10.96098391      28.78473643       9.55336061       53       0.25936200       0.48779900       0.17958700 
I       9.58187232      29.63595611      18.45662780       53       0.79565700      -0.73149200       0.41953400 
I       9.61570666      29.28316737      25.96175948       53       0.10495900      -0.02307400      -0.05043600 
I       0.42399400      12.22970563       6.62493355       53      -0.22802900       0.19562100      -0.28274500 
I      -0.77482104      13.16281728      14.38417705       53       0.21015200      -0.31030400      -0.12753300 
I      -1.18464307      13.92878306      22.23255343       53       0.37308600       0.36823400      -0.15866700 
I      -1.72829566      13.57366259      30.48814676       53       0.02866700       0.29923400       0.15399700 
I      -0.05294411      27.24588269       7.94724375       53       0.12192900      -0.04423700      -0.30106200 
I      -0.31360216      27.60787207      15.32761622       53      -0.05636700      -0.28356600      -0.01158400 
I      -1.08424226      28.02638950      23.15134410       53      -0.03554100      -0.35435800      -0.13472800 
I      -0.18041989      28.42913540      31.34495648       53      -0.68656500      -0.76262400      -0.32586400 
I       8.63974061      11.95516671       6.65157336       53      -0.11898000       0.29023300      -0.15982300 
I       8.38006144      12.75718508      14.03283491       53      -0.00455200      -0.23938400       0.23512300 
I       7.84369614      12.92975819      21.55869269       53      -0.01853300       0.22258300      -0.04965100 
I       7.35644628      12.52079071      29.68481204       53       0.15962700       0.26347900       0.21986500 
I       8.61683572      27.30334325       5.82841543       53       0.21086000      -0.44596700       0.41808200 
I       8.38306615      28.16679393      14.83995192       53       0.51862200      -0.00752500      -0.23736400 
I       7.19637653      28.06805287      21.75446671       53       0.42664200       0.05663200       0.11707900 
I       7.64679621      28.30130143      30.42265094       53      -0.01575800      -0.05702700      -0.12481200 
I       4.20659315       4.78047443       6.32108166       53       0.17682900      -0.02411600       0.13658100 
I       3.99997848       4.95980987      13.54844077       53       0.07859900       0.47167900      -0.06005100 
I       3.16719264       5.93181305      21.40057773       53       0.01373300       0.33879300      -0.58000900 
I       3.06509953       5.66104753      29.75887992       53       0.18811800       0.04498600       0.06083700 
I       3.77548651      20.40548612       6.99318200       53       0.24591800      -0.01501000      -0.24873200 
I       3.78036411      20.44622686      14.81100505       53       0.22348900       0.35070900      -0.04406700 
I       3.75657903      20.05489886      23.35880837       53       0.09755000       0.75520500      -0.20290200 
I       3.56872186      19.85125042      30.66862981       53      -0.47388200       0.51569900       0.48304100 
I      12.48252577       4.37599872       5.62383449       53       0.66364800       0.71105800      -0.18160600 
I      12.38572075       4.80489796      14.49478203       53      -0.01011100      -0.20971000      -0.00224900 
I      12.62872944       5.77334680      22.67296431       53      -0.38184400      -0.18669000      -0.47039100 
I      11.77070895       5.43859127      30.15487632       53       0.15867200       0.03871300       0.08184700 
I      12.95393502      18.97985724       5.75972642       53       0.17171300       0.48527500      -0.30990600 
I      11.92992515      20.46195793      14.28348514       53      -0.09818300       0.41178100      -0.46252500 
I      12.24373157      20.77027791      21.64206284       53      -0.21037900       0.19018900       0.64454600 
I      12.08846640      21.22940090      29.75628077       53       0.13824800      -0.32315500       0.15073900 
I       8.71289968       2.38120334       1.27494626       53      -0.35776500       0.32308900      -0.10031900 
I       8.43817919       2.54627306       8.98919012       53      -0.11710700      -0.14713300       0.28161800 
I       7.97099528       3.89019054      17.83458527       53       0.00870400      -0.54038400      -0.16594300 
I       7.43113583       3.25348857      25.25580506       53      -0.02275500      -0.12656700      -0.17285900 
I       8.69131706      16.59673561       2.26434915       53      -0.05117800       0.55168600       0.07775600 
I       8.63394433      17.98655464      10.10430543       53       0.03249800      -0.25808800      -0.04863900 
I       8.56709960      17.95123718      17.72438092       53      -0.05151100       0.40859400       0.08731500 
I       7.10912738      17.72043976      25.98338847       53       0.16832700      -0.27088300      -0.13119200 
I      17.27363659       1.88289575       2.01124778       53       0.20737100       0.34930400      -0.07819600 
I      17.10702653       2.45192411       9.91369418       53      -0.05516900       0.47573400      -0.24429300 
I      16.06130872       2.56837767      17.18632824       53       0.26370300       0.72595000       0.39484200 
I      15.33973769       3.38929070      25.80275938       53       0.26278500      -0.70899500       0.03526200 
I      16.96929822      17.62216051       2.03065063       53       0.13691000      -0.55709600       0.10846800 
I      16.87413814      17.65099193       9.27865591       53       0.25945500      -0.22752400       0.38263200 
I      16.91442004      18.08029673      17.38741206       53       0.03350000       0.05658600      -0.06826800 
I      16.31588531      18.82116995      25.93504468       53       0.06597700      -0.41352900      -0.04164500 
I       3.97579178       9.47252645       1.97752297       53       0.11402000      -0.03226000      -0.01049400 
I       4.49253321      10.28469769       9.74883071       53      -0.05101900      -0.11393300      -0.09480800 
I       3.83764903      11.09831850      17.31556342       53      -0.18333900      -0.40589300      -0.39620400 
I       3.00465695      10.78175702      26.23998004       53       0.04407800       0.56122900      -0.62295800 
I       5.27288904      25.01947285       2.56956180       53      -0.05894500      -0.34074700      -0.15058900 
I       3.96584021      25.46684144      11.12338145       53       0.48193600      -0.19509300      -0.70576200 
I       3.29553086      25.25055446      19.15857495       53       0.27155000      -0.21816900      -0.09977300 
I       4.39723893      25.26334200      27.26265876       53       0.40490000       0.74722800      -0.53319000 
I      13.19539646       9.90419061       2.17761904       53      -0.03054900      -0.51226600      -0.23112200 
I      12.94388971       9.56421902      10.35781433       53       0.02029300       0.65569200       0.15310900 
I      12.63027078      10.62887095      18.28701796       53       0.11224800      -0.04179300       0.10193700 
I      13.39411006      10.73296918      26.55722733       53      -0.16554100      -0.14007600      -0.12933900 
I      13.43223192      24.95799417       1.60844070       53       0.01809000       0.15417800       0.73636000 
I      13.55733748      24.72071268       9.42798566       53      -0.06220700      -0.13532100       0.15896600 
I      12.32461408      25.85860263      17.13200856       53      -0.14313900       1.60202700       1.27153900 
I      12.45982120      25.84360472      25.67466391       53      -0.02184000       0.16702900      -0.16758400 
H       0.11687689       9.25492509       2.86428805        1      -0.64887300      -1.61049900      -0.74682700 
H      -0.78002033      10.14942150       8.60527770        1       1.59023200      -0.59242900       1.25652600 
H       0.13065910      10.84606280      17.74570204        1      -0.78627700       0.26174200       0.81876600 
H      -1.16640264      11.26611564      23.73083023        1      -0.41695700       0.17885800       0.09934000 
H      -0.07301401      24.18558281       2.73513871        1       0.84708800       1.33824400      -0.43089300 
H      -0.15267688      25.03698701       9.96310764        1       0.89223600       0.32196000      -1.37146800 
H      -1.57338474      24.24848146      19.20691480        1      -0.15065000      -1.60066200       1.11316800 
H       0.07807515      25.76331032      25.63807945        1       1.25312000      -1.62564100      -1.69393200 
H       9.71655546       9.80416774       1.39480813        1      -0.05978500       1.02953200       0.15422000 
H       8.90440888       8.64232595       9.70598815        1       0.31654600       0.11278700      -0.22840400 
H       6.86253968      11.23299079      17.14714659        1       0.45362400      -0.14350600       0.31329500 
H       7.77773654       9.21697395      25.47773340        1      -3.13645900      -2.98919600      -2.43769200 
H      10.22638062      24.47422267       2.10782387        1       1.97213400      -0.16051400      -0.58401200 
H      10.20488484      26.43695990       9.87844383        1      -1.25996300      -0.07930000      -1.01406900 
H       7.94196157      26.82051610      18.84965995        1       0.80394600      -1.31227100       0.07982400 
H       9.75116146      25.02979149      25.84778270        1      -2.04504700       0.28669500      -0.41061700 
H       3.24640356       3.02683854       0.77646500        1      -0.26757300       0.42959700      -1.43725600 
H       3.61268538       2.04467952       9.16108137        1      -0.68853000       0.27973500      -1.00691400 
H       3.01355564       2.23250019      17.91118718        1       1.46601100       2.38341000      -0.26237200 
H       2.08958838       3.89037704      25.76349485        1       0.06146500       0.46796500      -0.85988900 
H       2.66697762      18.03842515       3.39471991        1      -2.11311200       0.50205600      -0.49018600 
H       5.28037072      18.64873400      11.04013958        1       0.53323800       1.49565500      -0.03584400 
H       4.88000293      18.60378075      18.36262718        1      -1.23708700       0.33963600      -1.63884000 
H       4.00421764      17.98418146      26.38568737        1      -0.51029300       1.10521300      -0.12063700 
H      13.18486467       3.81313768       1.70520033        1       0.88302000       1.84375600      -0.35962800 
H      13.42241455       3.29036512       7.92193904        1      -1.14322900      -0.83770000       0.17855400 
H      10.72197953       2.20372304      17.39966280        1       1.58435100       1.04300700       0.08528400 
H      10.90114721       3.55870319      26.59531563        1       2.88332400      -1.90496000      -0.41971900 
H      14.18853328      18.06886402       0.80665224        1       1.85212400       1.21876400      -1.02133100 
H      11.73995432      17.47126475       8.58624983        1       1.30530900      -0.61369700      -1.22382200 
H      12.17177735      19.15931108      16.88298749        1      -1.16172300       2.65428600      -2.70248800 
H      11.38185183      17.12591329      24.88462196        1      -0.06802800       0.30885200      -0.21590800 
H       5.87048436      12.13748317       6.24582275        1      -1.75138100       0.95114200       0.22284700 
H       3.63787661      14.55435033      14.74605195        1       0.77563100      -0.98192500      -0.30305700 
H       3.25105519      12.51266170      22.94980537        1       1.36323900       0.91783900      -0.72989200 
H       2.40239717      14.16832918      30.47179106        1       0.58179000       0.38856500       0.48936400 
H       5.61755173      27.65613396       6.55056569        1      -0.44082500       0.23442900       0.19452400 
H       5.81630284      26.49386095      15.42821241        1      -2.09740000       2.35370700      -0.21404300 
H       2.39047305      29.22982065      22.56272147        1      -1.44802600       0.78702600       0.36511300 
H       4.67174825      28.15967834      30.79531716        1       5.08163400       1.17476200       0.12531400 
H      13.41269093      11.58194691       6.20290815        1       1.28051400      -0.38416100      -0.40857900 
H      12.30315975      11.87035192      13.24351724        1      -0.20673200       1.81954400       1.57824800 
H      12.61382923      12.05487283      22.32245896        1       0.92435700       0.90266300      -0.42501400 
H      12.02878166      14.20954751      29.81942018        1       0.41142100       0.18835300       0.32234800 
H      13.86853883      27.35604758       5.00782606        1       0.23713300      -0.29187700      -0.87520800 
H      12.80655413      28.91998894      13.53252122        1       0.35252200      -0.56644900      -1.69976600 
H      11.57288245      27.90567309      21.74795798        1       0.46257300       0.59117800       0.01209500 
H      12.53325557      29.36918503      29.69379953        1      -0.50538900       0.31695100       0.01726300 
H       0.38864201       5.91082842       6.40500046        1      -0.47655500      -0.00153500      -1.90112000 
H       0.89110193       5.48034641      14.50407345        1       0.63848800      -0.80444900      -1.12466700 
H       0.77702549       5.42880548      23.08176108        1      -1.34131700       0.82374500      -1.66693900 
H      -2.18329099       5.43415377      29.60310459        1       2.24543400      -0.92262200       0.40574200 
H      -0.46225400      20.43146676       4.57146389        1       0.93000100      -0.22723600       0.50752300 
H       0.40826490      21.17056775      16.49936320        1      -0.38231800      -0.20087700      -0.20253300 
H      -1.99384512      21.35791279      22.06321989        1       1.70154400      -0.08186200       1.59958300 
H      -0.90998375      20.90318586      31.50007266        1      -1.34018700       0.64575200       0.61760000 
H       8.82675706       3.71894069       6.80656125        1       1.55737500       0.44527600      -1.12641900 
H       6.72289210       5.25255567      13.42839635        1       1.13414100       0.26489600      -0.59640500 
H       9.10766558       7.53214152      21.39708358        1       1.27919100       1.12041200      -0.73632700 
H       7.54852485       5.27292456      27.65380519        1      -0.16353300      -0.14059700       1.53776600 
H       9.96231526      19.20923470       6.38538546        1      -0.81174500       0.58060100      -1.09751600 
H       7.94715790      19.95463620      12.31640120        1       0.04911000      -0.80156200       1.16606400 
H       7.28259647      20.03672455      23.18815157        1       0.68751200       1.01208900       0.03487000 
H       6.53902740      19.15041634      31.03924651        1       0.28738300       2.12207500       0.09648100 
H       7.98091133       9.17300746       1.49524643        1       1.73983800       0.86244200       1.34700400 
H       8.54685208      10.28271133       8.72053530        1      -0.47557400      -1.97326800       1.23524200 
H       7.03064075       9.95895137      16.05008126        1      -0.17977800      -1.03648700       0.83550200 
H       8.85115394       9.45210625      26.48959712        1       0.21589800       1.09246200       0.49616600 