768
Lattice="17.2876324609 -0.0120316803788 -0.149162560802 0.504941172132 30.4125375514 0.592279160916 -0.47768788734 0.873711528395 31.9745825002" Properties=species:S:1:pos:R:3:Z:I:1:forces:R:3 energy=-99809.4039328 stress="1022.556005 -2390.870352 -345.133796 -2390.870352 742.033446 991.124254 -345.133796 991.124254 -881.748007" pbc="T T T"
I       2.58757615       0.77569432       6.86504916       53      -0.32129500       0.49254200       0.01735200 
I       2.36936562       0.82826084      14.88384693       53      -0.53220300       0.10558600      -0.10174700 
I       1.74232794       1.36106181      22.30738476       53      -0.22206600      -0.01815900      -0.14943900 
I       1.79657557       1.94100155      30.98260675       53       0.01522900      -0.30970900      -0.36313900 
I       2.53023420      15.84236283       6.61994786       53       0.08411200       0.28559700      -0.05283300 
I       2.36493977      16.94286471      14.63067870       53      -0.02884000       0.09921200       0.23791600 
I       1.76546012      17.38897504      22.15922608       53      -0.32730800       0.00266800      -0.06172700 
I       1.34082476      17.35636970      30.37679905       53      -0.20988200      -0.04917500       0.13894300 
I      10.94507951       0.89374043       5.28637736       53       0.35700900       0.23546900      -0.16794200 
I      11.02997950       1.97544337      13.11413623       53      -0.10396400      -0.15286500       0.08128100 
I      10.16657173       1.86526102      21.91430605       53       0.27536100       0.05064400      -0.03404000 
I      10.56667166       2.18232433      29.54569088       53      -0.11610500      -0.18828900      -0.19691300 
I      10.91997343      16.05873091       5.99312829       53       0.56537800       0.33332600      -0.06817600 
I      11.08464940      16.75979813      14.31111464       53      -0.12556200       0.01506700      -0.09886700 
I      10.38690854      16.88832030      22.28898917       53      -0.14923500       0.32721700      -0.07377100 
I      10.04216669      16.33327053      30.38066520       53       1.09814800       0.72465700      -0.69507700 
I       6.89572143       8.25564490       5.13314648       53       0.05060700       0.18488500       0.07816500 
I       7.35898146       9.14370362      13.28137370       53      -0.53985100       0.14086300       0.14628900 
I       6.33636730       9.76883910      21.76406491       53      -0.15155000      -0.23567900       0.22111900 
I       6.29939984       9.00591543      29.41681317       53       0.63601400       0.34202300       0.45851100 
I       6.73019694      24.48173876       6.86148576       53       0.56020400       0.10420700       0.04680600 
I       7.27356260      24.18433288      15.20463497       53      -0.82108700       0.47400200      -0.03491000 
I       7.24798246      23.86265050      22.81231199       53      -0.23597100       0.33367100       0.28177200 
I       7.38660522      24.33979461      31.22146862       53      -0.57562700      -0.29230000      -0.07155900 
I      15.18062838       8.75726070       6.18815485       53      -0.23812000      -0.05811400       0.36336000 
I      15.58676756       8.88460769      14.51836908       53      -0.03306700      -0.50434100       0.14910900 
I      15.40157967       9.07780176      22.56612913       53       0.55282800       0.17034700      -0.04201300 
I      15.53901231       8.96441555      30.74102005       53      -0.12233200       0.10294600       0.15521200 
I      15.29961464      23.68710409       5.56069191       53       0.47030100       0.12918300      -0.14986200 
I      15.20883874      24.89283861      14.05521163       53      -0.39277300      -0.56192100      -0.01798400 
I      15.48981697      24.67917943      21.86902566       53       0.30072000       0.13223700       0.13342100 
I      15.76825959      25.54417170      29.91920479       53      -0.38413600      -0.50392100      -0.24932100 
I       6.30805934      13.38245834       2.46092033       53       0.15032000      -0.13482300       0.30317100 
I       6.68673011      14.14534018      10.19532786       53      -0.26083200      -0.14522500       0.05923100 
I       6.12671868      14.90417958      17.54518571       53      -0.10842000      -0.17184100       0.31787600 
I       5.87083857      14.19853512      25.80347378       53       0.36950400       0.37506700       0.39171400 
I       7.06371679      28.98438675       1.67512542       53       0.03932200       0.14338900       0.50977500 
I       7.08659600      29.26100983       9.67310652       53      -0.46229000       0.12261800       0.27428900 
I       6.22626961      29.86579075      17.61447767       53       0.19334700       0.09627500       0.33339600 
I       6.49170356      29.13557003      25.96214237       53      -0.43395400       0.20123100       0.03202500 
I      14.86904560      13.80556497       2.50508429       53      -0.10082000       0.12550400       0.24152500 
I      15.22289213      14.51566417      10.75989262       53      -0.56017300      -0.40775400      -0.29079100 
I      14.85107726      14.61614229      18.02155799       53      -0.48578200      -0.02900800       0.06365400 
I      14.32402572      15.12826403      25.83710293       53       0.23581800      -0.12712700       0.12523600 
I      15.72525786      28.99227541       3.54492981       53      -0.15447200      -0.14248900      -0.09681500 
I      15.45477461      29.04472940      11.26547218       53       0.24060200       0.21945600      -0.23369000 
I      14.90443852      29.58427173      18.74203963       53       0.09795300       0.01322400       0.01330700 
I      15.08209229      29.51978209      26.86740059       53      -0.32992000       0.05800900       0.41709500 
I       1.82773684       6.07863678       1.34169619       53       0.30356900      -0.11312000       0.05532900 
I       2.59621274       6.46277613       9.68725353       53       0.21863200       0.12382100       0.01657000 
I       2.17907067       6.95869628      17.59634799       53      -0.08435500       0.13643800      -0.20308600 
I       1.59024834       7.05559608      25.33933635       53       0.46007000      -0.03750300       0.09425400 
I       2.74130001      21.82823785       3.04291365       53      -0.39473300      -0.36164000      -0.60056600 
I       2.40147899      21.50621388      11.10997359       53       0.68121500       0.15759200      -0.00947600 
I       2.56228183      21.37726645      19.11903129       53      -0.27789100       0.09191900      -0.59582200 
I       2.33849716      22.30107562      27.22350984       53       0.04874500       0.13671900      -0.02181100 
I      10.74651048       5.80066721       2.47099802       53       0.51441800       0.43816600      -0.35037500 
I      11.27072963       6.03587606      10.83756224       53      -0.33422700      -0.14206600      -0.17862900 
I      10.86234067       6.80258321      18.58594549       53      -0.37756600       0.56200300       0.33584900 
I      10.74951118       7.33170626      26.27691408       53       0.13238600      -0.21576100       0.19831400 
I      11.49435396      21.69367644       0.96248264       53       0.23412500      -0.16641300       0.41495000 
I      10.80922042      22.37826123       9.60224897       53       0.25669700      -0.05821600      -0.02578300 
I      10.73376970      22.49023224      17.99692995       53      -0.31486800      -0.14576600       0.26155000 
I      11.10548599      22.44022224      26.09948738       53      -0.08804000      -0.08080600       0.06373200 
I       6.65292269       1.22635101       5.24752762       53      -0.50425300       0.33147300       0.14517500 
I       6.70036821       1.63042365      12.80983561       53      -0.08730200      -0.19635000       0.18425700 
I       5.88743753       2.53722554      21.35754629       53       0.18557400      -0.20085900       0.04558600 
I       5.71551128       1.86077043      28.87101448       53       0.10557500      -0.10086900       0.31534900 
I       6.61114395      16.62859794       6.46319840       53      -0.26602600       0.05255700      -0.63720900 
I       6.72300044      16.73375588      13.93055163       53      -0.31788200       0.33100600       0.08171400 
I       5.61798406      16.74211561      21.85378214       53       0.46819100      -0.07146600      -0.09142400 
I       5.82135342      16.41481228      30.13839032       53       0.03365200      -0.01336400       0.13106200 
I      15.16258235       1.35785396       6.54599302       53       0.36652600      -0.19057700      -0.00048300 
I      14.83422633       1.58924943      14.34635818       53       0.29914900       0.14372300      -0.18687100 
I      14.41710119       2.09151458      22.40555534       53       0.13625200      -0.65796400       0.05629400 
I      14.72496222       2.03985035      30.42172589       53       0.34525500      -0.49337800      -0.24048000 
I      15.36766270      16.37659095       6.35616714       53      -0.36890500      -0.07696300      -0.06644900 
I      15.26849620      17.76207764      14.26101003       53      -0.06267000      -0.14527300      -0.09056000 
I      14.35660915      17.66946029      22.43304267       53       0.48414300      -0.00888900      -0.39887900 
I      14.01485406      16.83318929      29.81228906       53       0.09460300      -0.08727300       0.32265900 
I       2.26740856       8.61129803       5.72232635       53       0.04104800      -0.00107000      -0.14004900 
I       2.85698978       9.56431049      13.11931301       53      -0.15519600      -0.33043600      -0.22988700 
I       1.80514046      10.71093331      21.11381637       53       0.05609000      -0.25766800       0.19994400 
I       2.18315891       9.60984384      29.62306272       53      -0.53992500       0.19196100      -0.01036200 
I       2.81189862      24.73360234       6.03588403       53      -0.07224900      -0.23621500       0.17446000 
I       2.74131096      24.16283998      14.34510631       53       0.03144600       0.39785900       0.07636700 
I       2.69696574      24.23489462      23.45288419       53      -0.60496200       0.55408000      -0.30142800 
I       2.51060765      24.79821847      30.95830437       53       0.17218800      -0.11619900      -0.00333500 
I      10.82247110       8.48194925       6.58324631       53      -0.21141600       0.18031800       0.29874300 
I      11.33377221       9.04547527      14.80225140       53      -0.38812300       0.14018000      -0.27414400 
I      11.03227708       9.70068348      22.44912176       53      -0.02792900       0.43960600       0.24708400 
I      10.96951037       9.34898016      30.53890555       53      -0.60891900       0.34793400      -0.05882200 
I      11.12972064      23.63892359       5.26454685       53      -0.12381700      -0.44362500      -0.32092000 
I      10.66500160      25.00158484      13.22330872       53      -0.03410500       0.29651900       0.89673500 
I      10.83770864      25.07358470      21.74236884       53      -0.33638300       0.19346800       0.30727000 
I      11.12084303      24.80610116      29.72249514       53       0.13005500       0.13256200       0.02772800 
I       6.51028339       5.59589162       2.01087513       53      -0.32668700      -0.01309400      -0.26474700 
I       7.09484419       6.34149429       9.12382510       53      -0.00336700       0.21474400       0.42071600 
I       6.08975918       7.09583513      17.85194028       53       0.55898000       0.07450000       0.14922600 
I       6.22184076       6.91952884      25.40028551       53      -0.22789100       0.01034100       0.08457300 
I       7.13211741      21.11840656       2.95467336       53       1.08998900       0.62256900       0.07718600 
I       6.89829289      21.67264067      10.19271855       53       0.02358100       0.33814000       0.12805300 
I       6.75366673      22.46828222      18.83966943       53       0.17040400      -0.28385400       0.32288400 
I       6.89177959      21.46155594      27.41980918       53      -0.22537400       0.00580900      -0.02752200 
I      15.45027008       6.18566904       3.26890528       53      -0.25778700      -0.15627300      -0.62614800 
I      15.47433244       6.00049210      10.65259445       53       0.04621600       0.47358400       0.10459100 
I      15.08528819       6.26396310      19.17526578       53       0.02525800       0.45464600      -0.17524400 
I      15.31106072       6.57509174      26.63222361       53      -0.53075800       0.34067900      -0.02530000 
I      16.09119882      21.96290284       2.04630091       53       0.20921100      -0.09953100       0.19306200 
I      15.08279342      21.32767474      10.70887376       53       0.11956000       0.17787900      -0.33126800 
I      14.91174358      21.83593530      18.18599096       53       0.09468900       0.14048900       0.03828100 
I      15.48520488      22.45908094      25.63515674       53      -0.33340700       0.23980800       0.13512700 
I       2.19650720      13.92953977       2.19456516       53      -0.57008800       0.15093400       0.15061600 
I       2.45820745      14.73944087      11.24599402       53       0.05328800      -0.12536700      -0.57319100 
I       2.25746333      14.23433438      18.73557214       53      -0.60491900       0.30238900      -0.10237900 
I       1.41202192      14.35653446      26.50604484       53       0.02488800       0.02380500      -0.15725000 
I       2.78834815      28.77653477       3.31228745       53       0.19637800      -0.21619200      -0.14643600 
I       2.67496493      28.83215178      11.64065027       53       0.04094800       0.07764300      -0.39350600 
I       1.66686229      29.03722217      19.21564625       53       0.22295800       0.31196000       0.42250300 
I       2.03285005      29.53599164      27.11350178       53       0.51882700      -0.29057300      -0.12021400 
I      10.90886596      13.70595130       2.26534502       53       0.24555800      -0.53686500       0.33338900 
I      11.05079816      13.95835964      10.24070186       53       0.01392200       0.28977800      -0.28853800 
I      10.66517090      14.37288444      18.38956647       53       0.54020500      -0.08897000       0.23868200 
I      10.26034335      13.32408960      25.78318594       53      -0.01569500       0.36743200       0.02589600 
I      11.80799231      29.17857873       2.20102269       53      -0.40634400      -0.01023400      -0.06165000 
I      11.81319199      29.33826814       9.63524970       53      -0.24244500       0.15146900       0.10888500 
I      11.15902651      29.89801366      18.49789641       53      -0.75650600       0.20550000       0.24754100 
I      10.69390611      29.64789593      25.75962452       53       0.27581800      -0.03275300      -0.14833900 
I       0.26653045      12.49970289       6.50540639       53      -0.18122700      -0.06042400      -0.33307100 
I       0.06446873      12.93500452      14.63666417       53       0.10377500       0.54272600       0.02308200 
I      -0.88460288      13.92461197      21.93411385       53       0.21093400      -0.38710100       0.31819900 
I      -0.67061405      13.43131905      30.72430557       53      -0.15639500      -0.20780800      -0.29157600 
I       0.64171352      27.72148756       7.57829446       53      -0.03883200       0.16701800      -0.02373500 
I       0.26981598      27.81319862      15.49083281       53       0.16622600       0.29359300      -0.01958500 
I      -0.49065971      28.54517415      23.11262695       53       0.07356200      -0.19107900      -0.34652300 
I       0.73830558      28.26204573      30.77476572       53       0.08362000       0.39751600       0.41978000 
I       8.35537708      12.53006244       6.68895201       53       0.05191200      -0.07842100      -0.14351500 
I       8.67425297      12.74273865      14.45176012       53       0.06866900       0.42974400      -0.19009800 
I       8.43783906      13.18936685      21.48336653       53      -0.00202000      -0.19418800       0.30473600 
I       8.22307939      12.76891833      30.09918304       53      -0.14832300      -0.15689600       0.20993000 
I       9.22141308      27.82405313       6.53832345       53      -0.29726700       0.20802600      -0.70560500 
I       9.50350175      28.84223545      14.44662716       53      -0.03582000      -0.16833900       0.28771900 
I       8.12076579      28.79542832      21.92235505       53       0.08062200      -0.57605000      -0.25402000 
I       8.16255648      28.53868176      29.96843599       53       0.51232600      -0.02763800       0.09767300 
I       3.91106896       4.76218610       5.96291016       53       0.29884100       0.12025900      -0.10595400 
I       4.50779987       5.34670308      13.53205214       53      -0.05481900      -0.22666400       0.43017800 
I       3.73773049       6.26142251      21.73267857       53      -0.05589800      -0.11510700       0.01209200 
I       4.30664842       5.46329316      29.57251891       53      -0.23561400      -0.16192200       0.05742400 
I       4.55470360      20.35332972       6.88056854       53      -0.17130500       0.35431500      -0.17075700 
I       5.16916583      20.73211004      14.95433997       53      -0.15329300      -0.24114400      -0.26655600 
I       4.82869846      20.82990417      22.91003441       53      -0.22217100      -0.68705700      -0.13097600 
I       3.59462013      20.85796016      30.90661227       53       0.53856600      -0.39831900      -0.20468500 
I      12.78478529       4.76198393       6.41505475       53       0.06077600      -0.05661200      -0.16180100 
I      12.45094376       4.91909491      15.29659004       53       0.29425300       0.38511800      -0.17762700 
I      12.64287102       5.71784472      22.69291541       53       0.05526800       0.40545000      -0.00568200 
I      13.04749640       5.68056055      30.67694371       53      -0.42954700      -0.10246400      -0.15129400 
I      13.09358249      19.56360093       5.82082359       53      -0.00817900       0.31392800      -0.04142700 
I      12.72096191      20.94795825      14.08475353       53       0.07233800      -0.05234300       0.01244300 
I      12.36904746      21.30570081      22.20485704       53       0.74498800      -0.22791900      -0.14785000 
I      13.62318656      20.92498641      30.15418059       53      -0.64944800       0.07178400       0.24444500 
I       9.11186812       2.53602446       1.36688892       53      -0.10831400      -0.80265000       0.84798500 
I       8.56950335       3.01844196       9.44728818       53       0.26364900      -0.52079700      -0.18161800 
I       9.26000887       3.47881284      17.90596184       53      -0.18095400      -0.08077300      -0.15178600 
I       7.90930759       3.19796208      25.73316100       53       0.14088200       0.08321900      -0.29158500 
I       8.82042678      17.17407893       2.13279038       53      -0.58804100       0.15170200       0.14414900 
I       8.91609562      17.99244234      10.33925886       53       0.22138000       0.09216300      -0.05952500 
I       8.83228019      18.47678495      17.84058084       53       0.27327400      -0.14140400       0.08016400 
I       8.25491689      17.83501167      26.26552676       53       0.19734500       0.10035100       0.05885300 
I      17.16233507       2.31726519       1.75540832       53       0.04582300      -0.25738000       0.58964600 
I      17.22035524       2.75144542      10.55104373       53       0.16077300      -0.61824100      -0.16926300 
I      17.10477402       3.43988839      18.15157603       53      -0.06582800      -0.94321300      -0.15044900 
I      16.82806729       2.94994176      26.39133804       53       0.01451300       0.20968600       0.06550200 
I      16.85213164      17.67574752       1.93197953       53      -0.03204400       0.67090000       0.67777800 
I      17.57655413      17.92875740       9.57433739       53      -0.07958400       0.07936100       0.14251500 
I      17.50775017      18.43763244      17.88673067       53      -0.00578000       0.23364300      -0.00496000 
I      16.67131384      18.55191996      26.34108603       53       0.44429200       0.09174400       0.14988000 
I       3.80845957       9.59884792       1.43378769       53       0.28023500       0.25457900       0.28149900 
I       4.89626250      10.25238099       9.55939464       53      -0.54530700       0.07680100      -0.44527500 
I       4.14021665      10.90590211      17.11580082       53       0.10089400      -0.03450900       0.25983300 
I       4.01146442      10.99642703      25.86327066       53       0.05669200       0.03741100       0.51576600 
I       5.55711159      24.99753843       2.42258945       53      -0.13801000       0.38872700       0.19907200 
I       5.38538950      25.92020926      10.73740082       53      -0.94102700      -0.53873700      -0.02379700 
I       4.14623697      25.85752422      19.09353480       53      -0.14282100      -0.32904200      -0.43995600 
I       5.98646261      25.61989330      27.06088646       53      -0.34529600      -0.41111200       0.16726000 
I      13.26717590       9.96278608       2.20010246       53      -0.28258300       0.87963900       0.46588500 
I      13.07947332       9.82219937      10.87662213       53       0.35829700      -0.26098500      -0.00552500 
I      13.11452962      10.60648048      18.60271275       53      -0.07791000       0.23166000      -0.11569900 
I      14.21731215      10.88514021      26.79044305       53      -0.15146700      -0.25177800      -0.09586700 
I      13.20267829      25.51028859       1.71892985       53       0.32066500      -0.26376400       0.02339800 
I      13.94993019      25.14140271       9.47661895       53       0.38884800       0.48434000       0.16276800 
I      12.69574926      26.35442634      17.98817782       53       0.23674000      -0.36898400      -0.11959300 
I      13.02000410      26.11542803      26.24172731       53       0.06094900       0.13650400      -0.21659700 
H       0.85323845       9.77187864       2.22021999        1      -0.92725800      -0.27924000       0.21145500 
H       0.39599277       9.16050276       9.96920576        1       0.19650100       0.89439200       0.76742400 
H       0.74620818      10.41689960      18.11484559        1       0.66237400       0.21145100       0.12620000 
H       0.14736593       9.34008164      25.33996875        1       0.84451400       1.66408200       0.97437400 
H      -0.93306125      25.90322688       1.57372706        1      -0.11354600       0.16545500       0.46860800 
H       0.44217845      25.66242098       9.98207202        1       0.30171400      -2.17172700       1.91043300 
H       0.37165752      24.80781513      19.22576178        1       1.07647600      -1.68251300       2.67373900 
H       1.03176564      26.32254403      25.32624800        1      -0.77103100       0.48549300       1.11408300 
H       9.98603279       9.35134646       1.81496420        1      -0.55275600      -0.81173700      -0.97905100 
H       9.98397323      11.49866031      10.45754300        1      -0.84912700      -1.86924700      -0.48887900 
H       8.19792550      11.60852197      17.04774480        1      -0.39348000      -0.95988500       0.08880700 
H       9.15168391      10.18739737      25.47003460        1      -0.85692700      -0.89345900       0.69228000 
H      10.10491149      24.30014315       1.86833343        1      -1.05884800       1.25829700       0.95310600 
H       8.75751367      27.09121016       9.51786089        1       1.74621400       0.25156800       0.44177700 
H       7.10292905      26.79145988      18.21677975        1      -0.60588900       0.24406700      -0.70365100 
H       9.96694105      26.53222353      24.32829376        1      -1.32449500       0.43145600       0.87826900 
H       4.08549396       1.70549791       1.54255783        1      -1.32925000       0.30626200      -0.37310800 
H       4.12430885       2.30178664       9.07195871        1       0.31606700       0.75505600       1.49462900 
H       4.26575305       3.05990500      17.64617972        1      -0.65186200      -0.82208000       0.11338100 
H       3.49395477       4.14433875      26.31322025        1      -0.53621900       0.16512600      -0.35342000 
H       3.58586601      19.01173910       1.79885921        1       1.70683800      -0.87246500       1.08771200 
H       5.84674633      17.62344292      10.52383327        1       1.42610400      -3.28374500       1.94522800 
H       4.48288400      19.35520219      17.42960250        1      -1.29712400       1.09694400      -0.41162000 
H       4.99060179      17.46201962      27.74726987        1       0.90886500      -1.15390700      -0.28461800 
H      13.65256314       2.98062299       2.71168142        1      -0.98648800      -0.04683900      -0.60605300 
H      11.94521780       2.77022046       9.45910474        1       1.56520900      -0.72403000       0.92832700 
H      14.15243908       3.63774634      18.43416864        1       0.66928200       0.78671800      -0.61826500 
H      13.19504059       3.50055770      25.17310376        1       0.50555800       1.14805000       0.61354100 
H      12.22616317      18.61538282       2.34598347        1      -1.51628900      -1.13613700      -0.83055100 
H      12.96520672      19.26053026       9.91060498        1       0.74048900       1.80197800       0.20574900 
H      12.95087546      18.08567417      16.57334144        1       1.04508100       0.13028000       2.67832700 
H      13.83801993      18.06017271      26.19151912        1      -1.95064100       1.22357200      -0.98671800 
H       4.94877624      11.08794091       5.63650514        1      -3.32360500       1.05929900       0.41120800 
H       4.09703366      11.72694155      14.31423286        1      -0.66109900      -0.31734300       1.46690000 
H       4.55668747      13.61504693      23.47347578        1      -0.67037000       0.35286000      -0.42915800 
H       2.51925919      13.75859550      31.37686065        1       0.40546000      -0.91440600      -1.52482700 
H       6.06769363      28.16319593       6.27077517        1      -1.04894500      -0.19328600       0.20561000 
H       3.64003895      28.09556317      14.18025107        1       1.49003100       0.02899400       0.39484100 
H       3.34557699      27.04037853      22.83746090        1       1.36255900       1.13829100      -0.44340300 
H       5.59679591      27.25581243      30.37795232        1      -1.15787400       0.21338700       1.78858500 
H      14.69775575      12.38690327       6.73112214        1      -1.04679100       0.13571000       1.55706400 
H      13.39518816      12.17695189      14.03335422        1      -0.06383800      -0.07939800       2.88950400 
H      12.17601075      15.04629404      22.56332164        1       0.19021600      -1.95147000      -1.07952100 
H      12.56417959      13.49813118      28.40168633        1       0.07678600      -0.94969700       0.78103400 
H      13.80705386      26.77943617       5.47652592        1       0.01577300      -0.36896300       1.16325100 
H      14.85089401      28.71990191      14.86255122        1       2.13340800       0.53006500       0.39512500 
H      13.10365321      28.48330974      20.93629805        1      -0.15436600      -0.88674300       1.37208900 
H      14.02512396      29.36250778      30.88354084        1      -1.68349700      -1.05363700      -0.92667800 
H      -0.70666030       5.65834163       6.17996342        1      -1.69900000      -0.25600800      -2.96813500 
H       0.82272154       6.16989769      14.20232857        1       0.59871200       0.62007800       1.58165400 
H       0.58040683       4.62417085      22.55349890        1      -0.18014800       0.63246700       0.00940700 
H       0.92159923       6.63306509      30.00577991        1      -1.27853900      -1.37861400       0.15419500 
H       0.83114900      19.46296645       6.91869725        1       0.72819400      -1.18054200       2.05888400 
H       1.22037650      20.30329382      15.46563808        1      -0.64104700      -0.46790700       0.76439100 
H       1.95211699      21.15200284      21.99176453        1      -2.25299900      -0.24301900       0.40007700 
H      -0.49092264      21.57515229      32.04511737        1      -0.07706500       0.13590400      -1.21344000 
H       8.76809828       5.01309061       4.13847180        1      -0.30772800      -0.88314600       2.62077900 
H       7.70334685       4.80874624      14.18054786        1      -0.72021400      -0.75649000       0.19634400 
H       9.28742747       4.79368498      23.35246781        1       0.63609900       0.13190500      -0.50127000 
H       7.40282972       5.17629760      30.29944414        1      -0.99925400       0.80622200      -0.18113400 
H      10.05516341      19.34239768       7.17629432        1      -0.90058400       0.41461400       0.19013100 
H       8.46239739      21.91724201      14.77466050        1      -0.31654700      -0.39897600      -0.54702100 
H       9.75824951      19.82951989      22.10521249        1      -0.41741900      -0.81939700      -0.08249600 
H       7.24188943      20.71799490      30.15040407        1       1.03526000      -0.02191700       0.50926500 
H       8.71610043       9.71120833       0.58373120        1      -0.34151100       0.02103600       0.02085400 
H       9.53991250      10.52148190       8.93778969        1       0.78694700       0.28478700      -1.30519300 
H       9.35842245      10.13915810      17.26414374        1       0.24430200      -0.50273500      -0.87036100 
H       7.93184819       9.04995989      26.77603810        1       1.56895600       2.16841400      -1.93969200 