768
Lattice="17.3974712714 -0.1437922662 -0.598540246082 0.246956985244 29.6763274184 0.841732081284 -1.33171523905 1.12808933749 31.7437016104" Properties=species:S:1:pos:R:3:Z:I:1:forces:R:3 energy=-99800.1975673 stress="2080.058651 1426.253387 1802.241959 1426.253387 -486.75089 -205.988155 1802.241959 -205.988155 744.357506" pbc="T T T"
I       1.83405350       1.07487731       6.81692619       53       0.90900000      -0.24177900      -0.33265700 
I       2.43358968       1.18130529      14.47188597       53      -0.79604500      -0.21103400       0.03512600 
I       0.64356619       2.22684560      22.24470250       53      -0.22500100      -0.80895100       0.07099800 
I       1.11711051       2.16934692      29.97104819       53       0.09544400       0.04355500       0.38482500 
I       1.91167284      16.29380297       6.89356724       53      -0.26061200       0.11073500      -0.06575200 
I       1.41485242      17.32854285      14.54115062       53      -0.15256100      -0.22194300      -0.44358700 
I       0.63442239      17.81308659      22.14477163       53       0.06088100      -0.16932900      -0.14224400 
I       0.75665596      17.05319481      30.17925873       53      -0.83984900      -0.23724700       0.47621500 
I      10.49882240       1.13510795       5.23316352       53       0.15005900       0.05399500      -0.38963700 
I      10.90910809       1.57569324      12.14447431       53       0.01183000       0.06078600       0.34667200 
I       9.59282399       2.00697495      21.18237144       53       0.56849900       0.26372700       0.49499300 
I       9.40168160       1.73408048      29.07061270       53       0.57437500       0.61131800      -0.25876100 
I      10.73392225      15.42911141       6.15469110       53       0.10405400       0.28331900      -0.15263900 
I      10.89997018      15.97013240      14.26385384       53      -0.17209200       0.36639500       0.22244300 
I       9.82716316      16.90809783      21.62321356       53       0.05752500       0.42701500       0.25114700 
I       9.39552758      16.83482885      29.29242327       53      -0.08814900       0.36245300      -0.10068300 
I       6.30128786       8.35069795       5.32767457       53       0.64955200       0.08727000      -0.24135000 
I       6.88598106       8.93098785      13.26185242       53      -0.07727000      -0.09699200       0.17584000 
I       5.60775821       9.16277445      21.30594404       53       0.46588800       0.18351200      -0.03494400 
I       5.06376019       9.53493321      29.54314541       53       0.10100200       0.18529600      -0.09126900 
I       6.82911073      23.94339488       6.91574251       53      -0.12799200      -0.19284300      -0.35658900 
I       6.96088412      23.88830077      14.88022586       53      -0.45780300      -0.27025400       0.25559500 
I       6.45084794      23.84287391      22.97431819       53      -0.15007600      -0.40895500       0.19640300 
I       6.27336635      23.82995320      30.91437364       53      -0.11542000      -0.11901700      -0.42638900 
I      15.04390255       8.47300896       6.16799802       53      -0.27205100      -0.11478500       0.02733000 
I      15.48615329       7.64197634      14.48138756       53      -0.38710500       0.34318900      -0.81714700 
I      15.28044533       8.76358718      21.52432960       53       0.10651300       0.31581800       0.63997100 
I      14.70341476       9.16949114      30.31668426       53       0.02504600       0.03638000      -0.19976300 
I      15.10815712      23.09133388       6.06800736       53       0.01783000       0.28482200       0.12247600 
I      14.86559265      24.30572269      13.62981178       53      -0.79719400      -0.53637700       0.15944400 
I      14.12236908      24.33423628      21.47702458       53       0.62219600       0.19895700      -0.15268300 
I      14.82460731      24.55984630      29.35703662       53      -0.50250900      -0.03199100       0.20026100 
I       6.13593102      12.94343209       2.14902237       53      -0.14939400       0.04201400       0.10410100 
I       6.70007715      13.85971335      10.44361458       53      -0.45433700      -0.18205600      -0.12026100 
I       5.74277035      13.97129746      18.23089179       53       0.01627900       0.20602400      -0.72246300 
I       5.51210614      13.75441561      25.38703928       53      -0.05455100       0.09622300       0.02991700 
I       6.28061042      28.71999891       1.90648730       53       0.18732200      -0.39512700       0.24189600 
I       6.55642996      28.54049801      10.35892566       53      -0.27514100      -0.28574700      -0.13304800 
I       5.46370715      30.06965964      18.23200144       53      -0.22562200      -0.25371200      -0.52996700 
I       5.53014475      29.12412077      25.97867659       53      -0.23875600      -0.22518400      -0.38265800 
I      14.87540301      13.98089708       2.27555239       53      -0.10718200      -0.24053400      -0.24845100 
I      14.69372007      13.55885228      10.21989938       53       0.50888200       0.22419900      -0.41515300 
I      14.09551409      15.03915224      17.26666637       53      -0.49514300      -0.69281200       0.47360200 
I      13.17839764      15.02184196      25.30686736       53       0.88673700       0.35905200       0.49601100 
I      15.64506791      28.10059301       2.38204898       53       0.19804200       0.08592500       0.37802000 
I      15.40188587      27.95725166      10.86938335       53       0.41063600       0.03907500      -0.22712100 
I      14.63458045      28.64705048      17.99993547       53       0.31571400       0.15995300      -0.01546000 
I      14.69584525      28.68706047      27.26491399       53      -0.03067400      -0.32315400      -0.67273500 
I       2.14760394       5.64711142       1.56175503       53       0.17767400       0.16157700       0.07730700 
I       2.38669930       6.26593800       9.87111082       53       0.10731200      -0.04710400      -0.35527200 
I       0.80703114       7.90430760      16.99467178       53       0.56620100      -0.40122700       0.82071600 
I       1.20720944       7.19128464      25.01836630       53      -0.33225700      -0.53383400       0.58753300 
I       2.62981174      21.58383289       2.49916858       53      -0.63003000      -0.24957300       0.59106100 
I       2.44314518      21.36889978      10.69377601       53       0.03718800       0.11170200       0.01151000 
I       2.17575483      20.99036643      19.32557412       53      -0.71024900      -0.18022600      -0.48380900 
I       1.52507398      22.00686676      26.49056055       53       0.16429400      -0.09209900       0.60091400 
I      11.10129444       5.84801615       1.32454077       53      -0.30061900       0.04647900       0.68668900 
I      10.90464206       5.42726038      10.26499394       53       0.35803200       0.35439300      -0.14396500 
I      10.49297030       7.28471545      18.13185786       53      -0.51944700      -0.38440500      -0.21573600 
I      10.89283100       6.69203516      25.86805019       53      -0.39780000       0.01200400       0.28270600 
I      11.28883440      20.51905807       1.46558343       53       0.17509500       0.34946500      -0.18708900 
I      10.87220060      21.22710233       9.64776910       53      -0.53596000      -0.10349600       0.50407700 
I       9.72694410      21.52300724      17.86766117       53       0.55188200      -0.13241100      -0.19173400 
I      10.50584787      21.31720616      25.87945248       53       0.03314900       0.50539200      -0.18826000 
I       6.23061852       1.55435510       4.89579980       53      -0.02482800      -0.27408500      -0.07296800 
I       6.43337395       2.03851752      12.71399908       53       0.11836000      -0.28498300      -0.00681900 
I       5.05012096       2.54357108      21.62159124       53       0.41516600      -0.66976200      -0.15888500 
I       4.75552664       1.60342556      28.64815522       53      -0.00687900       0.06693000      -0.03918400 
I       5.98743060      15.45458425       5.88198974       53      -0.18572900       0.66375400       0.38097600 
I       6.25600314      16.91147186      13.82463012       53       0.07612300       0.06858500       0.14553600 
I       5.68730276      16.90855071      21.66786994       53       0.00885500       0.10920500      -0.39713300 
I       4.76454006      15.63052782      29.76567156       53       0.01702000       0.19242900      -0.13853600 
I      15.47379916       0.91948963       5.81868503       53      -1.16097200       0.51767600       0.07229500 
I      14.93517293       1.76986166      13.26507843       53       0.30857000      -0.61581600       0.03531300 
I      13.57730358       1.06594819      21.22799926       53       0.10896300      -0.16891200       0.15362000 
I      14.14565204       1.41214594      29.93703343       53      -0.19769900       0.39483200      -0.58483600 
I      14.93644726      15.15483675       6.27945176       53      -0.61322200       0.28831000      -0.00028100 
I      14.71505624      17.24430485      12.74751097       53      -0.03651500      -0.42551100       0.86869900 
I      13.72138109      17.26436670      22.01053389       53       0.36995700      -0.21307100      -0.41030200 
I      13.58382127      17.08567548      30.10644361       53       0.09824100       0.01844800      -0.30051300 
I       2.16470935       8.76178352       5.97596753       53       0.10974000      -0.19766700      -0.05215200 
I       1.63578762       8.84634795      12.95203380       53       0.03116800      -0.01702700       0.04994000 
I       1.57094685      10.11687288      20.98963222       53      -0.08148600      -0.00150600      -0.01557200 
I       0.61306367       8.77084105      29.13351551       53      -0.33260400       0.35794600       0.44943700 
I       2.47226751      24.14437116       6.31970093       53      -0.01418500       0.51517100      -0.34405100 
I       2.53543498      24.72331322      14.62508278       53       0.21529800      -0.50981100      -0.10849700 
I       2.00437238      23.90743922      22.94325105       53      -0.05798000       0.05440800       0.08757000 
I       1.38304224      24.33772500      30.51770367       53       0.14427000      -0.02254500      -0.40958700 
I      10.49577872       8.08261554       6.55010145       53       0.22769500      -0.01195900       0.02562000 
I      11.42159883       8.95250734      14.12775263       53      -0.49093000       0.28857300      -0.08424300 
I      10.75301365       9.78023749      22.41062593       53       0.01789200      -0.53175600      -0.09247500 
I      10.24501541       9.42175619      29.62116273       53       0.08824300       0.06174800      -0.03110800 
I      10.90196793      22.28873642       5.04535203       53      -0.12487700       0.20319600       0.36696200 
I      10.55271473      25.00924210      13.50874177       53       0.07612400      -0.18079600      -0.41853700 
I      10.27633448      24.04888378      21.69124505       53      -0.61409600      -0.53249000       0.01725300 
I      10.12094681      25.05857135      29.65081144       53       0.24974100      -0.56876800      -0.20116000 
I       6.50592441       5.77252984       2.06163089       53      -0.50446300       0.25408700      -0.20265700 
I       6.76142331       6.49631303       9.88898083       53       0.42021900      -0.16272000      -0.46872300 
I       5.53893173       6.83437861      17.44850518       53       0.13475800       0.19040700      -0.12976000 
I       5.35145255       7.46666013      24.97600468       53       0.37064700      -0.36280400       0.43943400 
I       6.62939996      20.90745079       3.02396933       53       0.32125100      -0.25512400       0.14598100 
I       6.85644115      21.89443964      10.42058061       53      -0.47028500       0.06554200       0.15295500 
I       6.13005441      20.99929948      18.98902892       53      -0.23955400       0.16168700      -0.09941500 
I       6.32911625      21.07624930      27.22991407       53      -0.47116800       0.22615600      -0.03122900 
I      15.83770812       5.92339757       2.44137877       53      -0.77819300       0.22608800      -0.07821800 
I      15.32534187       6.13738180      10.51194603       53      -0.04299100      -0.04042100      -0.36492300 
I      14.46119436       5.90433557      18.76411781       53      -0.01592600       0.19002500      -0.29688100 
I      15.09488352       6.91666199      25.85313074       53      -0.14999800       0.10117100       0.59290300 
I      15.93239855      21.17089072       1.35685970       53       0.25130000      -0.41443300       0.31642800 
I      15.08198830      20.83977023      11.17702189       53      -0.43911000       0.26177100      -0.42157600 
I      14.37050433      21.75125709      17.17335319       53       0.10462600      -0.23518600       0.05012900 
I      15.07388553      22.48975191      25.93667375       53      -0.30359500      -0.05384200      -0.26030700 
I       1.86497361      13.47271749       2.69238126       53      -0.22504600       0.13957400       0.03992200 
I       2.42544967      14.00910090      10.45030775       53      -0.07232800       0.10915500       0.12237100 
I       0.96903650      14.19912678      18.16114780       53       0.14741300       0.48657500       0.13243800 
I       0.31271527      14.82796173      26.49841139       53       0.50636100      -0.61999400       0.28533500 
I       2.62883148      28.45659133       3.52848571       53       0.58408600      -0.45655100       0.49951900 
I       2.38876862      28.89878718      11.29036850       53       0.22136200      -0.27432600       0.32959700 
I       1.29777694      28.64351863      19.64166244       53       0.31566400      -0.37563800      -0.76395500 
I       1.37198695      29.45503737      26.90831576       53       0.28310600       0.15835600      -0.00230500 
I      10.17916401      12.50452695       2.62177269       53       0.27855000       0.27817200      -0.29512800 
I      10.69341038      13.99249542      10.36157234       53      -0.11587500       0.28914200      -0.53680900 
I       9.89290282      13.38654055      17.77401372       53      -0.12235100       0.61121700       0.33042800 
I       9.66899745      13.82842271      25.63636357       53      -0.33667500      -0.14780500       0.18191100 
I      10.52300131      28.35424316       1.64485692       53       0.80867000       0.17090600       1.16499400 
I      10.80800974      28.67178617       9.44281496       53       0.11734400      -0.49525400       0.21728500 
I       9.75976492      28.88695651      18.43293066       53      -0.20897300       0.80563700       0.09126000 
I       9.82969613      29.05849482      26.03449511       53      -0.04833600      -0.06866600      -0.02389800 
I       0.37994883      12.33454331       6.39810839       53      -0.14711600       0.17200100       0.50991000 
I      -0.62914275      13.08127128      14.00873527       53      -0.02754800      -0.08769500       0.36819900 
I      -0.82792228      13.88482742      22.29990052       53      -0.12706700       0.21351900      -0.09273900 
I      -1.91678093      13.56861854      30.31157126       53       0.08528500      -0.03301900       0.07758500 
I      -0.09669799      26.68017864       7.71873305       53       0.06476000       0.49770200       0.16441700 
I      -0.37705120      27.16993046      15.02956537       53       0.26163700       0.24109000       0.22785800 
I      -0.97531894      27.57483554      22.89578624       53       0.11604000      -0.04819500       0.09745800 
I      -0.39857559      28.06567642      31.29057791       53       0.08760400      -0.06970400      -0.05012800 
I       8.88624521      11.90217646       6.68285509       53      -0.07935100       0.22871100      -0.02090700 
I       8.55048910      12.44395028      14.00695807       53      -0.29702800       0.68352600      -0.32899300 
I       7.72078864      12.82086131      21.73255093       53       0.27114500      -0.10191400      -0.54873500 
I       7.58316902      12.70382700      29.78542267       53      -0.00192900      -0.24971500       0.07833900 
I       8.75185062      26.94352055       5.65544455       53      -0.14717800       0.15157800      -0.37421700 
I       8.39371241      27.74705513      15.02021866       53      -0.14808100       0.53713000      -0.49004100 
I       7.27760372      27.99610495      21.71339091       53      -0.19292200       0.09707700       0.13974900 
I       7.88908428      28.06381492      30.40043311       53      -0.52354400      -0.19748000      -0.62217000 
I       4.33679314       4.73844378       6.61119569       53      -0.36410800       0.16121900      -0.21626100 
I       4.03316187       5.08169587      13.58167354       53       0.24740300       0.39623200       0.04974100 
I       3.14219955       5.76845591      21.12226432       53       0.07009300       0.62276900       0.56976500 
I       2.93400273       5.65401730      29.82895372       53       0.28544000      -0.19078100       0.07026000 
I       3.90024159      20.40707500       6.92184458       53       0.92671000      -0.71816600      -0.55222000 
I       3.54950036      20.48843498      14.53642188       53       0.33468600       0.03203200       0.03106300 
I       3.64795007      20.11409319      23.33316709       53       0.08132800      -0.32267600      -0.20943900 
I       3.64773833      19.55444055      30.62035670       53      -0.15549000       0.73364300       0.04807300 
I      12.94201758       4.43247167       5.54406924       53      -0.03691000      -0.08103700       0.25710200 
I      12.70827244       4.72112566      14.30446080       53      -0.21553900       0.27974100      -0.28409900 
I      12.65746399       5.43369084      22.65773779       53      -0.01834500       0.07395000      -0.40504100 
I      11.83827086       4.94532314      30.06589743       53       0.17646700       0.51321800       0.15483200 
I      13.20264125      19.06760890       5.64105248       53       0.28177200      -0.08676900       0.14756300 
I      11.71176926      20.38309410      13.90847798       53       0.13686700       0.04212500       0.07235700 
I      12.52280964      20.58554958      21.49752362       53      -0.34193300      -0.10607600      -0.18216200 
I      11.93269172      20.94559242      29.42595719       53       1.11970500      -0.02073600       0.20576800 
I       8.32402038       2.78176853       0.91412667       53       0.28820000      -0.67365900       0.13730000 
I       8.42924362       2.20914126       8.69100830       53      -0.15468200       0.64484800       0.44964200 
I       7.48759734       3.70911096      17.56770291       53       0.33885900      -0.49631400      -0.06964200 
I       7.50404010       3.00538374      24.87476420       53       0.16214900       0.50393400       0.46619600 
I       8.59405545      16.49014363       2.37494117       53      -0.05704200       0.14232000      -0.10214300 
I       8.83027180      17.71208235       9.95485968       53       0.01049000       0.08671900       0.25922400 
I       8.49350114      17.97339219      17.67200276       53      -0.09281300      -0.62041400      -0.03919000 
I       7.16881627      17.45696182      25.52273074       53      -0.12613100       0.26970800       0.47998300 
I      17.63313869       2.08324154       2.34641582       53       0.07265700       0.45293700      -0.33954400 
I      17.20664453       2.64199530       9.52802537       53      -0.12194100      -0.60368500       0.43425400 
I      15.98650065       2.38480643      17.07133733       53       0.86854700       0.11037000       0.05887100 
I      15.14699767       3.03209562      25.50424023       53       0.11361100      -0.18213000      -0.11311300 
I      17.37407950      17.26064762       2.16335464       53      -0.08061800       0.65779900      -0.51009100 
I      16.89641028      17.67087057       9.42378630       53       0.24866900      -0.02056200      -0.47146000 
I      16.95475491      17.98218800      17.04204444       53      -0.10690000       0.59543400       0.56333500 
I      16.64145345      18.52774853      25.63835643       53      -0.20372000      -0.05238200       0.27723900 
I       4.48663748       9.45825982       2.19048215       53      -0.30936300      -0.03314000      -0.36793200 
I       4.56027896      10.14235749       9.77761728       53       0.09252300       0.32461400      -0.21039400 
I       3.86545340      10.96355426      17.13961878       53      -0.03863000      -0.34703000      -0.26970900 
I       2.91624839      10.72038203      25.85931908       53      -0.00177100      -0.10953100       0.00408400 
I       5.14357333      25.02337735       2.29522507       53       0.06505600      -0.39109900      -0.04548500 
I       3.89020576      25.24239125      10.35191784       53       0.13508800       0.63316400       0.79712000 
I       3.53494459      24.70886332      18.84420052       53       0.18033100       0.44571700       0.20212500 
I       4.12257953      25.28446663      26.94013769       53       0.04717000      -0.36619400       0.13144200 
I      13.23572771       9.65162836       2.04320999       53      -0.04819300      -0.19199000       0.00401900 
I      12.90287218       9.97357466      10.15265504       53      -0.13343100      -0.47909100      -0.40862200 
I      12.80404900      10.55487128      18.19366768       53       0.29984300       0.13322400      -0.12099900 
I      13.13071032      10.71687958      26.32594380       53      -0.16273800      -0.16677200       0.05656200 
I      13.76035594      24.81200941       1.89455959       53      -0.32791000      -0.42059200      -0.16035100 
I      13.57758883      24.43143616       9.47083744       53      -0.18255900       0.67303500       0.27321800 
I      12.52054624      26.00843411      17.35709271       53      -0.46168900      -1.13335200      -0.27100800 
I      12.60204933      25.67607949      25.22516135       53      -0.16079100       0.44002100       0.25169900 
H       0.07292883       9.16881280       3.24708363        1       0.67610900      -3.46210000       1.96367500 
H       1.57593536      10.93521712       8.88223793        1      -0.60836100      -0.84255700       0.95332400 
H       0.15185778      11.03489802      18.37676317        1      -0.62065000      -0.14413500      -0.79496200 
H      -1.62490191      11.11402792      24.52502479        1      -1.56938700      -0.19339500      -1.48431200 
H       0.26925185      23.69625067       2.03473570        1      -1.40696600       2.23628000      -0.33717100 
H      -0.14559691      24.76036873      10.21921615        1       0.24008200      -1.70297100       1.98190000 
H       0.37745605      25.20963513      17.99701628        1       1.05931100      -1.58657500      -0.85587200 
H       0.73756260      26.46134804      25.67325342        1       2.68952200       2.06911400      -2.68714900 
H       8.85031699       8.24016761       2.27299001        1      -0.31159200      -1.14388700      -0.87085000 
H       8.51719384       8.79746471       9.82483996        1       0.04228600       1.07269900       0.87664700 
H       8.02803704      11.44569343      16.52110001        1       0.07438400       0.54461500       0.83396100 
H       7.74609484       9.04090259      25.66481148        1      -2.71389700      -2.78484100       1.13024900 
H      10.56606969      24.56580232       2.21246235        1       3.60213500       0.03690500      -1.46319200 
H      10.22767965      24.94430331       9.66384818        1      -1.05211000       0.57308100      -0.82430800 
H       7.69815951      26.26336839      17.64685144        1       1.60805300       0.24686000      -0.25927700 
H       9.06549321      25.08624290      25.78375435        1      -2.03249900       1.19963900       2.47650200 
H       3.91880561       2.45386425       0.38563723        1       0.16130100      -0.56758500       0.99776500 
H       3.98697825       2.49113933       8.53617153        1       0.36686900       0.36185500       1.28562300 
H       3.51577379       4.48525043      16.40151998        1      -0.18209600       0.43859500       0.69443100 
H       3.02747667       2.31824925      24.84589772        1       0.55259100       1.32376000       0.24871100 
H       2.77691726      17.61466779       3.27793610        1      -4.68864500       1.12580900      -2.56411200 
H       4.71863680      19.20796734      11.34534400        1       0.84545600       0.58947000      -1.55812500 
H       3.50843758      17.10201139      16.84216604        1       0.64990800       1.74094200       0.76529000 
H       4.30122271      18.22892933      26.82449730        1      -1.60968500       0.18917100      -0.13658300 
H      13.39269947       2.46760053       3.19191207        1       0.48696600       1.27500000       2.29775700 
H      12.37661967       2.65348386       8.51457461        1       0.97756700      -0.10730000      -0.20427000 
H      11.64478861       3.37438413      16.81273592        1       2.23859600      -0.53409400       0.88332600 
H      12.10701493       3.35441148      24.48627737        1      -1.15535500       0.37101000       1.39808700 
H      13.76499645      18.33847059       0.80320522        1       0.35739100      -0.61767500      -0.74756400 
H      11.97169597      17.16388003       8.57143318        1       1.99082000       0.74253200       0.83126700 
H      12.41192837      18.44916855      16.25238141        1      -0.89101600       1.48331700      -1.52565600 
H      11.36160933      17.52640585      24.52652654        1       1.52613200      -1.04148000      -1.87100300 
H       5.18265012      12.33713608       5.64137695        1      -3.21242000       0.16928000       1.64705200 
H       2.34516698      13.53985107      15.03874544        1      -1.66631800       0.01570000       2.85539400 
H       4.13144885      13.14227534      22.91949561        1      -0.05972900      -1.09700800      -1.50603300 
H       1.06420138      13.04426184      29.80464542        1       0.96801700      -0.62060800      -0.12353100 
H       4.95972011      26.37769525       7.28928441        1       1.11630200       0.39962400      -0.26901700 
H       5.24832018      27.99010777      16.23858436        1      -1.36668900      -0.12459200      -2.16082500 
H       2.54889189      28.45997614      23.48174200        1      -0.52922700      -0.50521600      -0.15841000 
H       4.66192134      27.98965097      29.88051402        1       2.44293100      -0.11946000       0.40760200 
H      13.23125090      12.65978817       5.22407658        1       0.04983500      -1.14608700      -1.13251700 
H      11.67053102      11.65676533      12.85748844        1      -0.44365700       0.85512400      -0.67286100 
H      13.15257583      13.10915652      22.41582715        1       1.23759800      -1.20379700      -0.52180600 
H      12.32536227      14.28249040      31.36746598        1      -0.16924500      -0.47695300      -0.25383100 
H      13.79654490      27.93256596       6.03759111        1       0.69421100      -0.35198400      -0.04058200 
H      13.87695110      28.76649229      12.69492434        1      -0.51623800      -0.29999200       1.22898700 
H      11.84502480      26.57408395      21.71313703        1      -1.14201700       1.09988900       0.75852300 
H      12.75851136      27.16565656      29.76510693        1       0.69780700      -1.11367200       1.35472200 
H      -0.53532866       5.97996696       7.25869955        1       1.78113400       0.40259900      -0.41403300 
H       0.99837546       5.60920310      14.94945717        1       1.11433800      -1.74341800      -0.22140800 
H       0.64156745       5.27250791      22.55646888        1      -1.76470300      -0.00027400      -0.65230200 
H      -0.49130650       5.75368938      30.07077320        1      -0.87332500      -0.05622500      -0.02141800 
H      -1.00126426      20.39774397       6.09428793        1       0.52376000      -0.79105200       0.66815200 
H       0.08643279      21.34461304      15.62461004        1      -0.43517900      -0.23656800      -0.01321900 
H      -1.20623017      21.26971096      21.77625941        1       1.40368900      -1.05036700       0.32700600 
H      -1.80374605      21.76472086      29.86658366        1       0.67788200       0.46609100      -0.23727500 
H       9.16688661       4.58782797       4.51636070        1       0.06178600       0.18032900       1.26300200 
H       7.44448780       4.84156341      13.49766688        1       0.03203600       0.22242700       0.01266900 
H       8.59664723       7.38930056      22.12780444        1      -1.39107000       0.66187100      -0.12616100 
H       7.64480142       4.73860062      28.19530011        1       0.40982700       2.92349800      -1.01201500 
H      10.24855707      18.89240444       6.82834123        1       1.28723500      -0.41960500       0.97694000 
H       8.25200906      21.52868683      13.60821584        1       0.23565400       0.84503400       0.31032800 
H       7.35670520      20.48564420      23.78293244        1       0.86862500      -0.13149800      -0.30103300 
H       8.36984424      19.34953640      31.33485004        1       0.35960000       1.49956100      -0.35906300 
H       9.47540639       9.87978312       1.87999009        1       0.91392400      -0.42386400      -0.66135400 
H       8.76052782      10.01118303       8.60061236        1      -0.60493100       0.70013800       2.46093600 
H       7.58316118      10.01420907      15.95312305        1      -0.13382200      -1.43764400       0.21364000 
H       9.26924458       9.61922905      25.76305337        1       0.38605300       0.90696000       0.39428300 