768
Lattice="17.5430603352 0.16917934489 -0.271071746401 0.832038107261 30.7517945549 0.542622481884 -0.703422524032 0.830424775832 32.0095417251" Properties=species:S:1:pos:R:3:Z:I:1:forces:R:3 energy=-99808.6289723 stress="-2535.606929 -906.391552 426.705327 -906.391552 -3174.345876 -2710.726998 426.705327 -2710.726998 4657.95188" pbc="T T T"
I       2.18958536       1.49915566       6.65339485       53      -0.20001700      -0.30762800       0.04925700 
I       1.55091755       2.22137600      14.70372829       53       0.71304700      -0.45016100       0.56152700 
I       2.31947257       2.06174538      22.26245860       53      -0.71968900      -0.06195700       0.34989400 
I       1.79102836       1.75294673      30.43117550       53      -0.29612800      -0.22543000       0.08537300 
I       2.75063790      16.33159674       5.91473657       53       0.36478800      -0.05224400       0.04665100 
I       3.16077280      17.06103999      14.52288486       53      -0.74212700      -0.19359800       0.09007400 
I       2.02246527      16.76292741      22.75146136       53      -0.39206900       0.18753100      -0.27346000 
I       1.45175278      17.49329557      30.23537318       53       0.39873000      -0.36280200       0.02648600 
I      11.58897452       0.87757514       4.91949545       53       0.07492900       0.10807000       0.53065700 
I      10.97068879       2.15346377      13.54351352       53       0.08574000       0.00341900      -0.24510600 
I      10.45457505       2.39276591      21.59723896       53      -0.08995400      -0.33973400       0.05342300 
I      10.30717267       1.81509005      29.15872396       53       0.66110900       0.41893000       0.18060600 
I      11.38470271      16.71883236       5.84666600       53       0.30364800       0.01695200       0.05125500 
I      11.45686171      16.73802900      13.55307326       53      -0.68433600       0.82515200      -0.04653400 
I      10.78549739      17.01286552      22.19499329       53      -0.26092300      -0.04264900       0.12581900 
I      10.83411077      17.01509211      30.25370403       53      -0.24704400       0.20952500       0.11765500 
I       6.55981762       8.82987815       5.43009581       53       0.21736500      -0.12976300      -0.08292300 
I       6.92932362       9.26320795      13.50974679       53      -0.24892600       0.22936000       0.04150500 
I       6.33053617       9.70902754      21.67286212       53      -0.04892000       0.19567900       0.53362400 
I       6.15554682       9.23550074      29.70771660       53       0.73387800       0.24499100       0.53679100 
I       7.41920019      23.79906861       6.89192440       53       0.18369500       0.33536000       0.03289800 
I       6.72278213      25.33060814      14.63213445       53      -0.31887000      -0.20970400       0.01354900 
I       6.72910619      25.09644260      22.69837274       53      -0.27607700      -0.03873800       0.12890000 
I       7.40778863      24.50066235      30.91845871       53      -0.63369200      -0.21723400       0.15444200 
I      15.27261100       9.12120372       6.73817892       53       0.13607200       0.06832200      -0.42824600 
I      15.48621007       8.91613527      14.78650121       53      -0.18936800       0.67718500      -0.45152400 
I      15.45485632       9.75490127      22.75546763       53      -0.67227400      -0.48802700       0.14738100 
I      15.46503234       9.20543365      30.54268776       53      -0.48485200       0.14107100      -0.21455200 
I      15.92523463      24.46867931       5.81672818       53       0.24399200       0.16849200      -0.58392300 
I      15.81222928      24.13049899      13.97616391       53      -0.11846300       0.40525400      -0.11749700 
I      15.67090946      24.88589183      22.14579169       53       0.16345200       0.06944200      -0.25965500 
I      15.47541778      25.36325856      29.54637744       53       0.19978400      -0.09634300       0.16911200 
I       7.04221273      13.42665521       2.38953825       53       0.09188800       0.44092300      -0.15720100 
I       6.65104800      14.13919657       9.87306226       53       0.12595900       0.03871400      -0.03055000 
I       6.34421541      14.81337571      17.91245010       53       0.29356200       0.13531600      -0.14260800 
I       5.78453270      15.11719608      26.69728625       53       0.39328300      -0.01040800      -0.49259800 
I       7.76566261      29.16739787       1.70617515       53      -0.34019900      -0.33538800       0.26643400 
I       7.75973738      29.94097627      10.16612241       53      -0.49730200      -0.41733100      -0.94948300 
I       7.27552351      30.09192998      17.46448107       53       0.24959200       0.24500000       0.59742800 
I       6.46582152      30.59895796      26.15931437       53       0.04613500      -0.66233900      -0.40886800 
I      15.52883709      13.61199693       2.43528471       53      -0.14555500       0.03728000      -0.25893200 
I      15.86060918      14.26627297      10.13799834       53       0.07567100       0.14052900       0.07300600 
I      15.70187741      14.39849600      17.61448081       53      -0.07532200       0.00744400       0.47336800 
I      14.51857195      14.67550701      26.23495155       53       0.32255300       0.15711000      -0.29320800 
I      15.69864674      29.72112128       3.16493439       53       0.27070500      -0.03270700      -0.12723100 
I      15.95645910      30.21169729      11.35207333       53       0.15698200       0.01028000      -0.95431900 
I      15.75405315      30.43193206      18.98408997       53      -0.18736800       0.09335100       0.27412100 
I      15.41983100      31.40990551      26.59456914       53       0.14309800      -0.48226200      -0.11985100 
I       2.00991034       5.87976235       1.49925186       53       0.21475600       0.11189100      -0.19151300 
I       2.48538116       6.46293456       9.63892979       53       0.00974700      -0.14847800       0.23180600 
I       2.65521786       6.57689388      17.78308397       53      -0.13986800       0.28149100      -0.69826600 
I       1.74707961       6.86420616      25.90554435       53      -0.22894100       0.44879800      -0.51167200 
I       3.25033674      21.19975418       3.00647619       53      -0.46304400       0.04184900      -0.52026300 
I       2.76916115      21.80152079      10.54784565       53      -0.17001600      -0.43657900       0.48150700 
I       1.92467634      22.88408823      18.68410352       53       0.43161100      -0.00196000       0.25901200 
I       2.48663876      22.55603883      26.95827016       53      -0.10520500       0.02251700       0.23629400 
I      10.82342571       6.67345527       2.29381358       53       0.38708300      -0.23418700      -0.26957000 
I      11.24364643       6.30672700      10.64474474       53      -0.52595200      -0.12505200       0.47480200 
I      10.68995810       7.43889085      18.90863917       53       0.36765500       0.01450800      -0.03237900 
I      10.24544020       7.78427805      26.83641153       53       0.11956500      -0.35324400      -0.04347400 
I      11.43866413      21.65080257       1.42264267       53       0.38289300       0.40639700       0.09106200 
I      11.24862872      22.12204666       9.84634008       53       0.09328100       0.18946200      -0.05850200 
I      10.99798115      22.82232970      18.22545343       53      -0.21516300      -0.18493300      -0.14375100 
I      10.82962551      22.92891279      25.66692060       53      -0.23083600      -0.05675200       0.21032900 
I       6.94118111       1.22001726       5.21187219       53       0.01762700       0.19624600       0.05299000 
I       6.05467353       1.24379536      13.01806550       53       0.10545300       0.21637200       0.17164200 
I       6.06354986       2.40553829      21.48637103       53      -0.21120800      -0.63711300      -0.29762100 
I       6.13493827       2.18691484      29.60350140       53      -0.19522300      -0.32893000      -0.23195900 
I       7.04633324      16.91298928       5.93197717       53      -0.16369500       0.00707800       0.09489500 
I       6.95419498      17.07172606      13.40135597       53      -0.26981500       0.33155500       0.12886200 
I       6.23056072      17.25568392      21.98055248       53      -0.01581600       0.09997900      -0.08473500 
I       6.07430106      17.33593263      30.23501043       53      -0.00572000      -0.14500900      -0.10319700 
I      15.37982439       1.40860067       6.35043325       53       0.12918600      -0.10269000       0.09732300 
I      14.94776922       1.97203212      14.46981928       53       0.20792900      -0.46624100      -0.05241500 
I      14.99127906       2.90213272      22.48239275       53       0.36396400      -0.38776100      -0.06027500 
I      14.61082144       1.82796463      29.84581677       53       0.26671100      -0.15157800       0.31255800 
I      15.95963666      16.78088349       6.20562223       53      -0.24681800       0.16871500      -0.36760700 
I      15.46892638      17.34987843      14.76373320       53       0.48439800       0.03049900      -0.01502600 
I      15.31467085      18.20476972      21.85816877       53       0.04525500      -0.64365900       0.27077500 
I      14.91329002      17.16318091      29.58415044       53      -0.55995400       0.59642000      -0.20325900 
I       2.03879499       8.93110718       4.97205098       53       0.70806700      -0.48590800       0.55712700 
I       2.56530219       9.86192827      13.44072727       53       0.04309100      -0.52231900      -0.30256500 
I       2.12366925      10.07345206      21.98082003       53      -0.61444100      -0.20400200      -0.36481900 
I       2.08380493      10.12574303      29.40519090       53      -0.20879900      -0.05375600       0.24781400 
I       2.60643914      24.36108113       6.49174706       53       0.20064000      -0.27537000      -0.10364900 
I       2.01903919      23.89713511      14.64054983       53       0.50756000       0.01883300      -0.09207000 
I       2.53910008      24.61901474      23.32182413       53      -0.40997500       0.48907200      -0.17837500 
I       3.15447480      25.19666155      30.85404971       53      -0.20113000      -0.04363900       0.03390500 
I      10.91346062       9.23370002       6.96101607       53       0.13567100      -0.04235800      -0.24871900 
I      10.66465084       8.95845566      14.42075296       53       0.07414800       0.39689700       0.27322600 
I      10.18476892       9.92950982      22.34909851       53       0.44295600      -0.10326700       0.15819200 
I      10.72855480       9.81293510      30.46108125       53      -0.40252100      -0.35524100      -0.43050000 
I      11.42605610      24.86013564       5.82844939       53       0.05937600       0.01087500      -0.21625400 
I      11.30730188      24.52907502      13.79686467       53      -0.89428500       0.41851500      -0.92322100 
I      11.13657133      25.81600846      21.99605048       53      -0.12365700      -0.18395300      -0.28847300 
I      11.16620653      25.34381341      29.75232972       53       0.12173600      -0.07948300      -0.11001900 
I       6.28337378       5.17536481       1.33752290       53      -0.04977100       0.29966600      -0.05390200 
I       6.98645560       6.92459887       9.22242273       53      -0.46872000      -0.29060500      -0.00401000 
I       7.02063117       7.79566757      18.42785137       53      -0.17751800      -0.11254100      -0.37033900 
I       6.34125229       6.91671258      25.60452677       53      -0.24578800       0.20545900      -0.18792600 
I       7.67797655      21.57167117       3.31406935       53      -0.10873300       0.08480500      -0.52122400 
I       6.99870890      21.49183130      10.83877540       53       0.07812400       0.41017800       0.15885600 
I       6.93941647      22.78430218      19.04286033       53      -0.28290700      -0.15462300      -0.07236800 
I       6.75298450      21.30564885      26.94991992       53      -0.65081600       0.46565500      -0.21835700 
I      15.33080416       6.23020699       2.54937530       53       0.08191000       0.15938600       0.42797700 
I      15.39800092       6.60546989      10.79063600       53       0.10878200      -0.36557500       0.02553300 
I      15.78249788       7.70572785      18.43812860       53      -0.58960000      -0.25944200       0.44164100 
I      14.59360489       6.80337154      26.49777126       53       0.08833100      -0.12371900      -0.55438400 
I      15.81805631      21.69149760       1.68659171       53       0.36709300      -0.18762100       0.44193000 
I      15.60842042      21.64196231       9.18144912       53       0.08033400       0.08179300       0.04526300 
I      15.45630431      22.58714606      17.99194125       53      -0.11502400      -0.06342100       0.17946600 
I      15.34973225      22.40522140      25.37688770       53       0.04302300       0.01447400       0.33726200 
I       2.24190339      13.63851269       1.38461915       53      -0.23267300       0.16904900       0.21500400 
I       2.65906881      14.56417111      10.73143675       53      -0.13912300      -0.11239500       0.26779100 
I       2.17509043      14.35736106      19.35358896       53       0.16052500      -0.16952200      -0.17930900 
I       1.79548857      14.81820167      26.00150951       53       0.08086200      -0.46308100       0.29651600 
I       2.70514396      28.89216353       3.11632001       53      -0.07623400       0.11654400       0.06893300 
I       2.63095977      28.84143077      11.45184535       53      -0.06925100       0.18433900       0.06875100 
I       2.73448554      29.76697697      19.47844979       53      -0.73779000      -0.04327400      -0.28848800 
I       2.26503816      29.32891640      26.92179083       53      -0.03468400       0.02401900       0.01669200 
I      11.15200119      13.64348996       2.14676794       53       0.07127400       0.05515800      -0.41878500 
I      11.47564049      14.17868711       9.88402791       53      -0.31677700      -0.11281600      -0.30403600 
I      11.02019903      15.35784600      17.87421415       53       0.41405600      -0.12505200       0.70788200 
I      10.15635424      14.02413698      26.44101506       53      -0.16875000       0.10105500       0.03282000 
I      12.06923723      28.99778964       1.36539345       53       0.15947700      -0.06760700       0.39587100 
I      12.10803735      29.95309830      10.35920812       53      -0.31631700      -0.03658400      -0.29474400 
I      11.22794100      29.68708399      18.32064500       53      -0.03840800       0.45351400      -0.01873600 
I      11.11479336      30.39784367      25.77384239       53       0.46135600      -0.13577600       0.40484400 
I      -0.38687187      12.49482705       6.32742274       53       0.30063400       0.18523300       0.13959300 
I       0.51023460      13.27262415      14.41266927       53      -0.03400000      -0.12718700       0.32665900 
I      -0.81715337      13.30341473      22.62115729       53      -0.13921400      -0.26254700      -0.24785400 
I      -1.28926626      13.19230129      30.41420345       53       0.01482000       0.14390800      -0.13126500 
I       1.12296285      28.10480669       7.42574771       53       0.05894700       0.16277100      -0.01466900 
I       0.31015245      28.49583714      15.58967471       53       0.11321000      -0.08837600       0.06192800 
I      -0.65208251      28.66788842      23.11639292       53       0.19427600       0.42421600       0.02608100 
I       0.53016376      28.57068169      31.55020923       53      -0.18818800       0.16127000      -0.39467200 
I       8.63081209      12.73404201       6.36134478       53       0.05349400       0.04865600      -0.44174200 
I       9.30439801      13.28198147      14.54512979       53      -0.16433200      -0.03754800       0.13562500 
I       8.33908269      13.44000077      22.02663163       53      -0.38768400       0.16091200      -0.02201500 
I       7.70147006      12.95142289      30.53881777       53       0.24884800       0.39974200      -0.07929700 
I       9.65331951      27.99379546       5.68816170       53      -0.01145600       0.64255500       0.26858200 
I      10.11142046      28.82002758      14.19224511       53      -0.00329500      -0.15075900      -0.03967800 
I       8.62649618      29.09380090      21.81337327       53      -0.02818600       0.35213700      -0.09829400 
I       9.20455383      28.56191860      29.86715182       53      -0.25456400       0.57409600      -0.00853000 
I       4.42432496       5.03586375       5.11799134       53      -0.07425600      -0.67484200       0.41593800 
I       4.56270671       5.81365083      13.54535031       53       0.04428600      -0.08031400      -0.12224400 
I       3.98273510       5.85577982      21.24100637       53       0.10898300       0.33600200       0.81369100 
I       3.78888281       5.56472481      29.42231426       53      -0.10280000      -0.16247100      -0.12586900 
I       4.78711109      20.38421815       6.72305670       53       0.31237800       0.21345500       0.22041400 
I       5.17960356      20.59497936      14.89121444       53      -0.01028200       0.14822400       0.03637500 
I       4.34658042      20.77665852      22.67013242       53      -0.06620900       0.47173400      -0.15021400 
I       4.60965165      20.93036892      30.97874620       53       0.05418000       0.33128800       0.05815200 
I      13.40615087       5.22475981       6.74983900       53      -0.01352700      -0.10984500       0.03724300 
I      13.55984224       5.56541323      15.28580123       53      -0.19907500      -0.01092800       0.01521900 
I      12.34779243       6.06813031      22.58068171       53      -0.02843500      -0.36974100      -0.07484700 
I      13.34990874       5.51853042      30.84167415       53      -0.67382700       0.00086000      -0.13229900 
I      13.08558392      20.73033486       5.52067986       53      -0.11255900      -0.05311700       0.20431400 
I      13.60903582      20.87601368      13.55409236       53      -0.25200300       0.14801100      -0.10519900 
I      12.81382676      21.23175125      21.97410417       53      -0.07531400       0.52965700      -0.13797700 
I      13.64674869      21.36781522      29.22714725       53      -0.06724700      -0.33657400       0.57373700 
I       9.31738583       2.32789596       1.31688028       53       0.06980900      -0.01448200      -0.18753500 
I       9.03147243       2.96815005       9.16503122       53      -0.31464000      -0.20227800      -0.13074500 
I       8.87291602       3.44669120      16.93567913       53      -0.08497200       0.01099600       0.30587600 
I       7.97154775       3.39713588      25.30492911       53       0.45220600      -0.21008300       0.19911600 
I       7.92532831      17.87244249       1.93354565       53       0.73520900      -0.35945100       0.03544300 
I       9.73072234      17.83410533      10.09906294       53      -0.39605600       0.08223300       0.06005000 
I       8.40550184      18.50422809      18.04877260       53      -0.12099700       0.98043800       0.13422300 
I       8.96774283      17.94720988      26.42794808       53       0.09219900       0.61880900      -0.48757800 
I      17.75709831       2.31874406       2.36871224       53       0.00516800       0.60697200      -0.36295800 
I      17.93305064       2.65062838      10.72185998       53      -0.10764700       0.42689200      -0.65553300 
I      17.48498942       3.39525599      18.60577979       53       0.38794200      -0.51961400      -0.04275000 
I      18.06178246       3.12897213      26.32392628       53      -0.36892300      -0.20226600       0.15673400 
I      17.49134254      17.63297200       2.43466543       53      -0.22031100       0.64427900      -0.74857000 
I      17.64310292      18.29285862      10.42863649       53       0.04574100       0.11783200      -0.55774800 
I      17.93774133      18.69540886      18.33194133       53      -0.06514100       0.38026000       0.27676100 
I      17.39147232      18.72485066      26.35985046       53       0.10274200      -0.02786400      -0.05500500 
I       4.85691222       9.96626171       1.36788760       53      -0.15836800      -0.07888100      -0.22647200 
I       4.37848430      10.43387631       8.60112279       53       0.02485600      -0.14894300       0.32452300 
I       4.50221179      10.99779978      17.59066163       53       0.04878600      -0.11199100      -0.19874000 
I       4.15367809      10.76250090      25.74062279       53       0.17826300       0.38186000      -0.41031200 
I       5.15550480      25.48712133       2.91057516       53       0.30254300       0.45194400      -0.60116800 
I       5.29456896      25.92556369      10.30291188       53       0.18426600      -0.39754600       0.01412200 
I       4.35807916      26.17443058      18.13275301       53      -0.09143500      -0.24164600       0.97342800 
I       5.55184622      25.99809947      26.70280464       53      -0.34464000      -0.49327100       0.07053200 
I      13.20069261      10.06601269       2.48476689       53       0.23598600       0.28642300      -0.25400200 
I      13.72893741      10.58035478      10.44103008       53      -0.08376700      -0.35109300       0.41549200 
I      13.45527832      11.22330643      18.50083207       53      -0.14885900      -0.08587900       0.28951700 
I      13.26020550      10.90966378      26.77151252       53       0.12658600       0.40507600      -0.38614900 
I      13.69320362      25.73499217       1.79864208       53       0.19117800      -0.09800100      -0.29693900 
I      14.71733338      26.02672658       9.73172040       53      -0.10030200      -0.24580600       0.03152700 
I      13.19552795      26.42018906      17.36340035       53       0.03396300       0.33788700       0.53347000 
I      13.34003835      26.83060153      25.90791324       53       0.09173400       0.12241600      -0.05223200 
H      -0.30932173      10.47719476       0.77736922        1       1.35205600      -1.17635300       1.09000200 
H       0.12326353      10.45161594       8.76800639        1       0.76177000       0.53953900      -0.87718500 
H       1.38169111      10.56044266      18.15035737        1      -1.42049500      -0.33070100      -0.54278200 
H      -0.59366188      10.05959745      26.27677091        1      -0.70864300      -1.76451800       0.01648000 
H       0.12697219      24.33959376       2.02740346        1      -0.04077500       0.91974200       0.44435600 
H       2.34466459      24.70227267      10.98834626        1      -1.90322800       0.48229900       0.23947300 
H      -0.78078026      25.68611624      18.60943032        1       0.39998500      -1.06724700      -1.13476700 
H       0.74774605      26.27755252      25.75716696        1      -0.32811400       0.57868400       0.12860200 
H       8.01916608       8.28965262       1.83233165        1       0.13886900       1.48025500      -0.32876000 
H       9.60503781      10.64980018      10.25835186        1       0.22797300       0.88478100      -0.96799200 
H       9.74096950      12.70951236      18.84943492        1       0.64288000       1.18600100      -1.05379100 
H       8.59485985      11.66973127      24.96797833        1      -0.35154800       1.06033900      -0.22985600 
H      10.16389181      25.11060886       3.39984146        1      -0.10002600       0.89863000      -0.21812100 
H       9.00832964      27.17631842      10.68433048        1      -0.91695100      -1.77835800      -1.13432200 
H      10.29371488      26.02557120      18.72509717        1      -2.61225900       0.15615400      -0.55444600 
H      10.35475894      27.16153890      25.88367319        1      -0.83781900       1.18578900      -0.42684000 
H       3.63400600       1.15619447       3.07951000        1      -2.00996700      -0.32949300       1.79149500 
H       3.45216451       2.77946442      10.04138384        1      -0.70028000      -0.23843600      -0.19905100 
H       4.25828209       3.54630089      16.45988665        1      -2.10533000       0.74341500      -1.65242400 
H       5.33641637       2.69587582      25.92659983        1      -1.29957600       0.29969700      -0.91348400 
H       3.34665564      17.62503461       1.05523800        1       0.64767600      -0.40398300      -0.78647100 
H       5.07158852      16.77963992       8.96280764        1      -0.38560900       1.19465700       0.45894400 
H       3.26018809      19.54355423      18.12448193        1      -0.08033300       0.26847800      -0.83713200 
H       5.36709372      18.35932988      26.49175283        1      -2.20714100       0.26402700       0.02193700 
H      14.38210816       2.41355184       1.82018858        1       4.06845900       0.14060200      -1.06753100 
H      12.62093846       1.95538976       9.48642689        1       0.01806600      -3.48531000      -1.91737100 
H      13.48530432       2.55173618      19.15357395        1      -1.75675100       0.86040800      -0.24539800 
H      13.49930022       3.75269408      26.67933117        1      -0.54907900      -0.09559200       0.22402600 
H      13.33800115      17.53470007       0.97316352        1      -0.23432600       0.26001100       0.20796900 
H      14.77484013      17.63157411       9.92805783        1      -2.22147700       0.75061900      -0.13954700 
H      11.81955465      18.47365696      17.20845139        1       1.42142800       0.74698700       0.41470600 
H      12.18410542      18.89369632      27.09331302        1       0.61454600      -1.05696600       0.10366900 
H       5.10725016      11.52712280       5.44595055        1      -0.74733400       1.62925000       0.38130100 
H       5.31450312      13.14875437      12.64597816        1       0.14826800       1.09493500      -0.30885900 
H       4.63176832      14.01904947      23.93399221        1      -0.96132800      -0.72709700      -0.80217900 
H       4.07986266      12.92647537      28.86193712        1       1.87810000      -2.35120100      -2.36030700 
H       6.87964204      27.56390075       7.21358861        1      -1.14940700       0.29925200       0.37760500 
H       4.13810894      30.00162350      14.50258594        1       0.26348700      -0.49781500       0.61560300 
H       3.83548203      29.27184555      23.34729472        1      -2.31513300       0.41629600       0.91991000 
H       5.64956500      29.31163271      29.06694044        1      -0.45083100      -0.42154700       0.55929000 
H      13.74880443      12.05927065       5.09926667        1       0.74031400      -1.74825300      -0.73531200 
H      13.22607002      12.35806865      14.00405250        1      -0.85005700      -3.47494500       0.82902600 
H      13.44177343      13.62154765      22.52573425        1       0.46427700      -0.72330400       0.91384500 
H      12.18174154      12.94925441      29.39180727        1      -0.21492400      -0.47377900       0.53220900 
H      13.20539432      28.91706094       7.33090386        1      -0.11353100       0.21291200      -0.44760400 
H      14.99374315      29.52765077      13.47573155        1      -1.75009300      -0.08178700       1.82096100 
H      13.36213999      29.03210350      21.31826690        1      -1.11625600       0.49512300       0.92110100 
H      12.39743193      28.07320042      28.66635124        1      -0.76583200      -1.58903400      -0.41982700 
H       0.94828916       5.68998447       7.22781198        1       0.54072300      -0.22650300       0.19253700 
H      -0.25747868       7.03747796      13.87036344        1      -0.86643300      -1.27887700      -0.18649600 
H       0.20822798       7.18498355      22.22559448        1      -0.62796000      -1.19744900      -0.01501500 
H      -0.13570222       5.45378373      29.21341189        1       0.29292600       0.85152600       0.79677000 
H       1.14100711      19.01087528       4.94948739        1      -0.07096500      -0.18686900      -0.21858200 
H       1.24290151      20.01479431      13.62562507        1      -1.99039900       1.59323700      -0.43188100 
H       0.40768484      20.58993494      22.00777369        1      -1.61586200       0.10037500       2.50331400 
H       0.34965602      22.03562019      31.29002697        1       0.70005700      -0.29993800      -0.75232200 
H      10.10427270       4.91623472       6.47057734        1      -0.41086400       0.38249100       0.07825300 
H       8.53460944       6.59481689      14.93997913        1      -0.42058300      -0.89002900      -1.65812400 
H       6.92132110       5.09249469      20.04582038        1       0.61303600       0.80463200       1.31206400 
H       7.41148426       6.13799057      29.17518095        1       0.59067400       0.19902400      -0.12082000 
H       8.83615511      19.07072787       7.29602284        1      -2.41455800      -1.13165600       0.81919300 
H      10.49764198      20.13443336      15.09048392        1      -1.51670800       0.81378400       0.13614200 
H       8.71461314      20.47662697      21.64885054        1       0.61822300       0.94221600      -0.27870500 
H       9.49626119      22.59569271      28.66228384        1      -0.72965000      -0.56237900       1.10149500 
H       8.05212915      10.13183361       2.46037853        1      -1.72808900       0.56979600      -0.16145800 
H       8.89953699       9.20221601      10.48934585        1      -0.59196300      -1.17758800      -0.54677700 
H       9.04533706      11.64596820      17.42350747        1      -0.16265400       1.06638700      -1.27627500 
H       8.35401452       9.83862415      25.02566245        1       0.07811900       1.05264200      -0.03144200 