768
Lattice="17.7749658585 -0.272750458278 -0.145801186575 0.0777883532469 30.8133315435 -0.266018068309 -0.48464443236 -0.0329944179904 32.8674024751" Properties=species:S:1:pos:R:3:Z:I:1:forces:R:3 energy=-99808.5096612 stress="2682.673534 1700.799373 -677.802754 1700.799373 468.62377 975.981079 -677.802754 975.981079 4266.029768" pbc="T T T"
I       2.60014562       0.65330069       6.79156285       53       0.36924600       0.10471400      -0.02371500 
I       2.21943641       1.97400074      14.69889347       53      -0.06542900      -0.15406000       0.28878700 
I       2.10670607       2.11567240      23.44428129       53       0.46262000       0.26714400       0.40809000 
I       2.33508350       0.74088189      31.72558465       53      -0.56692600       0.23188700       0.29162000 
I       2.41805108      16.26690847       5.49753145       53      -0.15853400      -0.27981700       0.49769900 
I       2.15771672      16.71114123      14.81561065       53       0.24181400       0.05416000      -0.14444700 
I       2.26219615      16.40309312      22.90590003       53      -0.08188100       0.07354300       0.11960300 
I       1.87876382      16.69694268      30.68175541       53      -0.00577900      -0.32978600       0.38072700 
I      11.54184080       0.98382883       5.47433192       53      -0.26237500      -0.09455000       0.13734800 
I      11.04031443       0.73966810      14.00855342       53      -0.05610500       0.18819000      -0.20389600 
I      11.28112732       0.95321409      21.88808313       53       0.36584900       0.29619100       0.23990000 
I      10.69390005       0.96806183      30.67983842       53       0.25507600      -0.20860000      -0.38215900 
I      11.40940452      16.57953657       5.87408872       53      -0.40050200      -0.44408600      -0.44540700 
I      11.16603565      16.89915387      13.55121971       53       0.06250300      -0.09669700       0.29555500 
I      11.30195839      16.63902945      22.59869779       53      -0.61121800      -0.24747500      -0.38055800 
I      10.43025656      16.20205189      30.69799835       53       0.47769300       0.43935100      -0.00395300 
I       6.80546178       8.15831241       5.37586231       53      -0.18291100       0.13250200      -0.06335300 
I       6.23311589       9.90730905      12.78882393       53      -0.55988900      -0.24615300       0.78740500 
I       5.95666394       9.53947760      22.41221895       53      -0.17590500      -0.48114700      -0.28426700 
I       6.19883125       8.70929931      29.92762990       53      -0.52518000      -0.01414500       0.54558500 
I       6.68377225      23.87924912       6.92430996       53       0.06873500      -0.03674000      -0.04812500 
I       6.45967416      24.28450720      14.59626987       53      -0.57875900      -0.06773900      -0.30566000 
I       5.91611877      24.45542389      23.20100822       53       0.37379600       0.15827800      -0.34143100 
I       5.85528267      24.88998203      30.87649534       53       0.79993000       0.35659400      -0.43737200 
I      15.38791985       8.97797324       6.77460448       53      -0.16109400      -0.50258400      -0.10773000 
I      15.81351676       9.66986950      14.82716150       53       0.05661000       0.24172600      -0.28226300 
I      14.57602888       8.98223118      23.57827378       53       0.67619600       0.82836400      -0.12905700 
I      14.78389116       8.84612296      30.93084772       53       0.11399500      -0.07088400      -0.03898000 
I      15.53923148      24.59636483       5.10904422       53       0.13168600       0.10038600       0.29180400 
I      15.74192167      23.52332725      13.55852281       53      -0.43096300      -0.28208200      -0.17330800 
I      15.23126999      23.72905853      21.69607141       53       0.10602300       0.00031500       0.03858200 
I      15.71569429      22.89757372      30.25840161       53      -0.61391200       0.08585700      -0.29153300 
I       6.07978331      14.11652747       1.73417846       53       0.65091600      -0.07987200       0.25124200 
I       7.03647366      13.36524024       9.74172854       53      -0.14258600      -0.12505100      -0.06015900 
I       6.98920425      13.95757132      18.37946742       53      -0.13393200      -0.15796100      -0.39180800 
I       6.17379829      13.81123509      26.39789470       53       0.09525000       0.04841800      -0.19754500 
I       6.73671517      28.98646094       1.10060818       53       0.17118400       0.08367300       0.11820700 
I       6.93058680      29.00530878       9.23444204       53      -0.28763400       0.06940300      -0.10908900 
I       6.51877366      28.89280367      17.81161285       53       0.55608700       0.48336800      -0.28159200 
I       6.61778443      29.58882742      25.72287732       53      -0.01210100      -0.06017100      -0.06709600 
I      15.48946826      13.50121393       1.33462242       53      -0.28249800       0.22414400       0.37143200 
I      15.98586940      13.10989962       9.91108290       53       0.32450500       0.10916900       0.05339600 
I      15.72980520      13.36748029      18.51243059       53       0.11627900      -0.04597800       0.11136700 
I      14.84437261      14.42584135      26.92483212       53       0.08430100      -0.43270300      -0.45574000 
I      15.46220340      29.04177742       2.53411092       53       0.51557600       0.14715100      -0.08802800 
I      15.38332050      29.52348165      11.02603129       53       0.02259500      -0.28428500      -0.24242000 
I      15.88899983      29.88174345      18.95040894       53      -0.34047200      -0.21154900      -0.16282200 
I      15.34436823      29.05842801      26.33697401       53       0.14455500       0.23612500       0.11859600 
I       2.02754189       6.00023084       0.90528326       53       0.12729400       0.06039300       0.30134400 
I       1.80602221       6.27442949       9.57061719       53       0.35212000       0.15398200       0.22811900 
I       2.41860651       6.35022442      17.66014426       53       0.28798300      -0.04954300      -0.03513100 
I       1.25200950       6.12230050      25.93424950       53       0.91061300       0.21896400       0.55530700 
I       2.35081483      21.51637591       1.96195357       53       0.17314400      -0.25892400       0.54094700 
I       2.40527014      20.83060362      10.45829902       53      -0.36001900       0.10642700       0.37384700 
I       1.45990236      22.15258473      18.68164125       53       0.28194000       0.27068300       0.03030200 
I       1.81854939      21.51661643      26.99445314       53      -0.49792900       0.02005400       0.18950000 
I      11.26329351       5.57831911       2.56020683       53       0.05571800       0.42174000      -0.08340300 
I      11.08909216       6.77417135      11.21052487       53      -0.16616400      -0.32928200      -0.33620300 
I      11.54067287       6.53807297      18.53993698       53      -0.80668900       0.02924400      -0.26670900 
I      10.20384912       5.74024706      27.44023907       53       0.22099800       0.08421200      -0.23011400 
I      11.08726689      21.66187034       1.35509272       53      -0.07329100      -0.07304400      -0.13109200 
I      10.93308945      21.13998374       8.92840773       53       0.25543300       0.17260600       0.16875200 
I      10.82460381      21.45123703      17.41796880       53      -0.49732300      -0.36046300       0.39802200 
I      10.53120572      22.44963640      25.99034052       53      -0.54134500      -0.39609400       0.03610400 
I       6.65148511       1.39986016       5.54136027       53       0.54967400      -0.43199200       0.08493900 
I       6.93774723       1.33988522      13.54759975       53      -0.40809600       0.12823700       0.62114100 
I       6.55383488       0.96365204      22.21729353       53      -0.12325300      -0.08444900      -0.26292500 
I       6.25383689       0.74425521      30.11040318       53       0.50020600      -0.10078100       0.15386000 
I       6.40570192      15.91275785       6.02233073       53       0.38798700       0.23791600      -0.10411300 
I       6.89903751      16.34186873      13.47402755       53      -0.46404300       0.48457600       0.44976800 
I       6.40392659      16.76224360      22.43404673       53      -0.06713000       0.15609500      -0.17612000 
I       5.92954890      16.68981079      30.21809288       53       0.03667700      -0.57089900       0.07878500 
I      15.69663855       0.98943202       6.71135813       53      -0.08803700      -0.07580800       0.06640400 
I      15.44888538       1.27096638      14.82869937       53      -0.04000600       0.00600100       0.05466500 
I      15.53955455       1.29446350      23.60695625       53      -0.49548200       0.13120700      -0.31497300 
I      15.06105650       1.31678557      31.58480881       53       0.05619200      -0.54633600      -0.08931000 
I      15.62916586      15.80740094       6.15680018       53      -0.27838000       0.51452000       0.12895900 
I      15.87433553      15.89973639      14.43239029       53      -0.79147500      -0.10290900       0.38686300 
I      15.26597452      15.64938341      22.83312887       53       0.15163500       0.25676500      -0.29672900 
I      15.15592042      16.38350233      31.12631838       53      -0.22337900      -0.42636600      -0.13987000 
I       1.67113491       8.04797194       5.25522249       53       0.74526700       0.63414800      -0.22018200 
I       2.35631611       8.82241488      13.88214531       53      -0.69871700       0.12476100      -0.03632800 
I       1.88145739       8.14262286      21.26963678       53      -0.00349800      -0.07598800       0.40471900 
I       1.52325062       9.05991966      30.27932542       53       0.22571100      -0.34067200       0.18595500 
I       2.02740940      23.55079695       6.26240984       53      -0.02256400      -0.08621800       0.23905900 
I       1.65175509      24.86650325      14.34764942       53       0.70000200      -0.31628600       0.06185500 
I       1.41401285      25.07615106      22.69004571       53       0.34434500      -0.63718300      -0.00460100 
I       1.59346070      23.62431615      31.19365858       53       0.44648300       0.74621200      -0.12403000 
I      10.98052804       8.85484164       6.70972242       53      -0.23842400       0.06812400      -0.07132500 
I      11.39165632       9.65163416      14.53264237       53       0.23153000      -0.41800200       0.51929900 
I       9.98928502       8.59278902      22.92666486       53       0.22943500       0.05272000      -0.09523000 
I      10.41590412       7.99632841      31.69350745       53      -0.53309400       0.46327600      -0.01492800 
I      11.21486433      24.13255147       5.20189332       53      -0.06857000      -0.03095200       0.06039600 
I      10.98441195      23.02976744      13.64008501       53       0.10317300       0.00737800      -0.24591100 
I      10.95291566      24.74098994      21.39064145       53       0.08884300      -0.62092100       0.04228500 
I      10.64323897      23.81808486      30.64784275       53      -0.47273200       0.40826100      -0.95059800 
I       6.84758151       5.97138837       1.67480685       53       0.03967900       0.01099100      -0.30582100 
I       6.67091793       6.30229053       9.80430838       53      -0.16455500       0.11351200      -0.19763800 
I       6.69201295       6.08521529      17.66602670       53       0.54132400      -0.14252500      -0.16371800 
I       5.75128426       5.86204767      26.27302956       53       0.29128100       0.10652900      -0.06981500 
I       6.97796526      22.00680698       2.51185307       53       0.20968600      -0.39010300      -0.29632700 
I       6.58872896      21.44566747      11.17474923       53      -0.34479000       0.21164200      -0.51490400 
I       5.95158356      21.64712961      18.95911947       53      -0.26041000       0.20554600      -0.08817200 
I       6.01363549      22.00080429      26.42975381       53       0.27545500      -0.42204200       0.19389900 
I      15.59658317       6.11203274       2.89039560       53       0.03602400       0.12013000      -0.07819100 
I      15.26140880       5.90918255      10.79180201       53       0.15719400      -0.12374400       0.07211600 
I      15.50410810       7.02307410      19.82164808       53      -0.00680100       0.03901700      -0.15370000 
I      14.63225239       5.81146200      27.18122754       53       0.07031100       0.17126700      -0.37971400 
I      15.89196041      21.01971285       1.46532924       53      -0.29758100       0.11623000       0.11893000 
I      15.69052783      21.30327121       9.33031490       53      -0.20057000      -0.11039000       0.10812400 
I      15.46624834      20.89746789      18.24743166       53      -0.51589900      -0.00559900      -0.32209600 
I      15.01439246      21.58604687      25.74130731       53      -0.03081900      -0.18340300       0.17856500 
I       2.04781855      13.52892720       2.60016804       53       0.74199000      -0.76468800      -0.95602000 
I       2.78466773      14.03579790      10.25644044       53      -0.15142600       0.23633800       0.03283700 
I       2.49976514      14.00128905      18.86960803       53       0.48146100      -0.24519800       0.11842600 
I       1.34650857      13.28591911      27.10779394       53       0.33588100       0.17122100       0.00785600 
I       2.52987847      29.06896584       2.65065485       53      -0.55620100       0.20177100      -0.31493000 
I       2.33860460      29.03357442      10.54877659       53      -0.20667100       0.11432800       0.16545100 
I       2.60215331      30.48310099      19.08838115       53      -0.11670700       0.20022000      -0.23047900 
I       1.56219168      28.72028592      27.57379028       53      -0.50518700       0.26088300      -0.13555700 
I      10.82069849      14.01226205       1.55402333       53      -0.06836000      -0.29667700       0.51607100 
I      11.27534883      12.81920224       9.50331164       53      -0.33168700       0.64535700      -0.19266300 
I      11.36234505      14.54345944      18.41206234       53       0.08917100      -0.24115900      -0.13286700 
I      11.14387461      14.12264838      26.40612114       53      -0.86148400      -0.02491900      -0.32669400 
I      11.75795602      28.86696051       1.24481748       53      -0.55422000       0.06892200      -0.29494800 
I      11.17104265      29.21268799       9.22507519       53       0.05113600       0.07937400       0.19143900 
I      11.58947811      29.23811229      18.16810645       53       0.07057600       0.00557600      -0.04457300 
I      11.40538404      29.42215337      26.06063111       53      -0.32935800       0.41374000      -0.23734100 
I       0.47673087      12.08173954       6.21528820       53       0.08676000       0.68580200       0.18550700 
I       0.98618506      12.29249718      14.78361498       53      -0.07081300       0.69691800       0.16661100 
I      -0.41219531      12.12414463      22.96009037       53       0.41224300       0.04985300      -0.10859500 
I      -0.86465758      12.71128119      30.70281680       53       0.17635600      -0.12576000       0.04743000 
I      -0.20661792      28.32282727       6.34741161       53       0.01463100      -1.21682900       0.10807200 
I       0.58677171      28.59563785      15.05889391       53      -0.12976100      -0.05661800       0.28503300 
I       0.46776862      28.81021011      22.50756390       53      -0.30390400       0.17658600       0.11601400 
I      -0.88882631      27.69423035      31.07315838       53       0.02207000      -0.64088200      -0.05577200 
I       9.31051315      12.11787697       5.46797559       53      -0.03404500       0.22611200      -0.28238400 
I       9.01549567      12.83718687      14.24622840       53       0.30489500      -0.06807500       0.21845700 
I       8.44151305      12.83588034      22.37519998       53       0.37020000       0.00149900       0.03620200 
I       8.47522392      12.74886680      30.34440723       53      -0.29033200      -0.38942900       0.25788000 
I       8.87991638      28.01048860       5.11837540       53      -0.22128600      -0.20618100       0.40355700 
I       8.67648222      27.74634064      13.88526590       53       0.06741400       0.29239100      -0.32133400 
I       9.01527044      27.81070090      22.19122106       53       0.01811100       0.23081000      -0.08236900 
I       8.76860570      27.83903381      29.26895532       53      -0.00705100       0.44173000       0.33198500 
I       4.20179811       4.40498767       6.10385828       53      -0.17394600       0.49592700      -0.13121700 
I       4.77506733       5.00936490      13.86496987       53      -0.06515900       0.30952600      -0.18757100 
I       5.26524260       4.95655039      22.32923506       53      -0.24890400       0.18274400      -0.41100600 
I       3.82821773       4.64362674      30.07721920       53      -0.10478500       0.14600900       0.44021200 
I       4.47823273      19.55206203       6.14000793       53       0.28527100       0.46845600       0.38125600 
I       3.97781722      20.62489884      15.28076926       53      -0.13280600       0.27531600      -0.26949800 
I       3.25145594      20.77735394      22.90349793       53      -0.03428400      -0.30732200      -0.27555500 
I       3.68975939      20.31253368      31.21562599       53       1.08020800       0.17192900      -0.06201600 
I      13.27431017       4.80016959       6.57001463       53       0.04649600      -0.29946500      -0.16405800 
I      13.57159523       5.32360628      15.50192206       53       0.19134400       0.07828800      -0.39268700 
I      12.45585599       5.22267037      22.63178291       53       0.25613500      -0.31973700      -0.08669000 
I      12.41332249       4.47059943      31.54816488       53       0.35238900       0.58642900      -0.03311400 
I      13.72236570      20.62942379       5.71237480       53       0.12160300      -0.71807100      -0.36364800 
I      14.00461550      19.54018506      14.02339913       53      -1.63212500      -0.23026700      -0.88567600 
I      12.08738656      20.28569788      21.90699109       53       0.06106700       0.47620300      -0.04581300 
I      12.08335589      19.93951586      29.30191203       53       0.28904000      -0.10633500       0.15561000 
I       9.25101721       2.26972143       1.35696589       53      -0.23390300      -0.33845600       0.10547500 
I       8.70794998       2.46511055       9.68165169       53       0.01984600      -0.49866800      -0.00196700 
I       9.10334286       2.27401401      18.37526961       53      -0.09963000      -0.47694300      -0.48380600 
I       8.88524644       2.58185423      25.53323509       53      -0.15738100       0.57877500       0.27998500 
I       9.11416808      17.89653615       1.82295000       53      -0.12514500      -0.10343900       0.12197800 
I       8.95719517      17.20839132       9.37918129       53       0.11239900       0.40914200       0.23185900 
I       8.76737459      18.20498886      18.35668063       53       0.21438600      -0.57242400       0.00122700 
I       8.22856122      18.13407354      26.61546219       53       0.10867800      -0.48774600      -0.32704000 
I      17.95220932       1.71836967       2.00406209       53       0.15087400       0.85378200       0.43625300 
I      17.84638973       2.41203922      10.64412867       53       0.07568800      -0.38230300       0.07553900 
I      17.56872399       2.99819334      18.69248075       53      -0.13663700       0.53420400       0.21487200 
I      18.24969311       1.98948748      27.79840711       53      -0.26439300      -0.01966200       0.08664300 
I      18.22884370      17.30138309       2.11806329       53      -0.21686800       0.26523300      -0.29284900 
I      17.72888985      17.51423811      10.68077261       53      -0.20521700       0.23840400      -0.70494400 
I      17.92646603      17.41122113      18.78902420       53       0.19783600      -0.49698300       0.13680400 
I      17.64295048      17.70362861      26.89692623       53       0.18096400       0.14989500      -0.49633200 
I       4.31754610       9.68972832       1.86535611       53       0.02359400       0.51318000       0.13643400 
I       3.56650957      10.05755569       9.39985541       53       0.13765400       0.38412600       0.09590000 
I       4.35491157      10.07048237      18.20415521       53       0.33473500       0.04769800       0.02014500 
I       4.17086846       9.94515760      26.22216465       53      -0.38774200       0.07661100      -0.13267500 
I       4.36679160      25.47427827       2.95346870       53       0.05937400      -0.43228600      -0.26635000 
I       3.75684686      25.13824069      10.01906713       53       0.29176700      -0.58874400       0.27754600 
I       4.19770324      26.33426108      19.27417412       53      -0.43714700      -0.66525900      -0.12972000 
I       4.08261565      25.61528545      27.14509521       53      -0.16125100      -0.11339000       0.00075800 
I      13.16057089       9.92901556       2.70815941       53      -0.27094000       0.22868500      -0.43424800 
I      13.19678475       9.92315554      10.28228055       53       0.49726400       0.22000400       0.56530700 
I      12.62856431      10.70193795      18.65295981       53       0.13173300       0.04402000      -0.08864900 
I      12.00137176       9.79667711      27.31165817       53      -0.25426200       0.06126800      -0.04217900 
I      13.97179739      25.09532808       0.94427120       53      -0.19240200      -0.09176700      -0.23163500 
I      13.19901461      25.00707935      10.16304509       53      -0.01498600       0.18510300       0.41461200 
I      13.36708283      25.22898834      17.62487209       53      -0.01399400       0.22652700      -0.51259100 
I      13.37459180      25.56057332      26.13463033       53      -0.11262700      -0.36639800      -0.08175400 
H      -2.01857862       9.96991233       1.15246164        1       1.78530400       0.27937600       0.50930300 
H      -0.24774502       9.27342692      12.65545515        1      -0.17793100       0.19753400       0.12810100 
H       0.25956594      11.05712401      17.61989566        1       0.24599800       0.21346400      -0.66237500 
H      -0.69805691       9.02457818      27.01792581        1       0.10040800       1.38822000       0.73048400 
H       0.54708261      25.92851280       0.77016972        1       0.84556000       0.11114600       0.54389400 
H       0.45848839      25.38965459       9.22815195        1       1.07327000      -0.93542800       1.45177600 
H      -0.04643780      24.85912167      18.03474276        1      -1.20177700       1.44011600       1.05545900 
H       0.39812313      25.48552032      25.50124961        1      -1.69729100       0.46227800       0.86730700 
H       8.44822098      11.02744585       2.65908206        1      -0.38116400       1.83536700       3.87053700 
H      10.09027495      10.21693886      11.02949125        1      -1.78570800      -0.15814600       0.70742100 
H       9.61776227      10.61999765      19.88677473        1      -1.20620500       1.21654700       0.82611700 
H       7.22959521       8.76854557      25.24840485        1       1.02506300       0.89205400       0.63015700 
H       9.91624786      25.32820803       2.49812637        1      -0.93409400      -0.11339800       0.28752600 
H       8.91308303      24.09831982       9.43782625        1      -0.55996000      -2.88222900      -2.69247200 
H      10.07745222      25.17837821      18.32860251        1       1.08317900       0.34380500       1.63801300 
H      10.25445517      26.24281330      26.43769591        1       1.50395100       1.72094300       0.84039200 
H       5.89721284       3.43639386       2.84888531        1      -1.86772500      -0.92581600      -0.16393300 
H       3.49856808       1.28736626      10.85022582        1       0.46955400      -0.14607200      -0.61874600 
H       4.75685645       1.51273929      16.72637931        1      -1.24889000      -1.64049500      -2.05287800 
H       5.16788486       3.01458099      27.81524420        1      -1.35400300      -0.19762000       0.07284700 
H       3.48654028      16.92408084       1.95745003        1       1.35609400       1.10146800       0.41376800 
H       3.70180656      17.50521980      10.30127922        1      -2.96135300       0.06691900      -0.10884400 
H       5.59064145      18.68842052      18.31746849        1      -1.08866400      -2.31804700      -0.16126800 
H       5.13244045      17.04566336      26.03034147        1      -2.26772600       0.50413000       0.48988700 
H      14.74395340       1.68676637       1.82657506        1      -0.13951700       0.00385800       0.74304400 
H      12.63559225       1.32842508       9.22478066        1       0.46443200       1.77421700       0.25810400 
H      13.37714371       2.87850436      20.21652323        1       0.60610100      -2.34051200       3.52170700 
H      12.55521428       1.17782989      28.05600306        1      -0.26441700       1.59875400      -1.55981900 
H      13.35083276      17.95417727       1.03042255        1      -0.28572000       0.87555700      -2.47691100 
H      13.79169322      15.22281221       8.63337699        1       0.65355100       0.45289000      -0.96332700 
H      14.65326894      17.12814176      19.93618533        1      -0.82680400       0.53085700      -1.01158500 
H      11.93897129      18.39809614      26.46320174        1       0.10860000       0.19587500      -0.28354700 
H       5.26967277      11.49719158       6.40473884        1       0.62038600      -3.13019900       0.97967800 
H       5.04411223      13.12375269      13.49533455        1      -0.90411800      -0.14577700      -0.56494700 
H       5.21881703      12.78077788      22.62479778        1      -1.07601200       0.70840600      -0.03654100 
H       3.33506048      11.14237955      31.09574542        1       0.78490800       0.58364900       0.54846800 
H       5.59434294      26.79438824       7.09669217        1       1.02984300      -0.25371400       0.07250800 
H       5.55279902      28.77487169      14.25655323        1      -0.60221500      -0.92991800      -0.13977300 
H       4.17407159      27.07537635      23.70197508        1      -1.22213500       1.78639800      -1.69103900 
H       5.04724096      29.11154724      30.41567619        1      -1.05768900      -0.94656200      -0.50031300 
H      14.56053399      11.44478676       5.20810289        1       1.06541200      -1.63625900      -0.52614600 
H      13.85417522      13.70418336      13.09275577        1      -1.14082200      -1.11069500       1.30726500 
H      13.96986409      12.08445859      22.25761857        1       3.11141900      -0.95690100       0.89364900 
H      13.53175937      13.19256554      30.02850772        1      -1.43993700      -1.04067700       1.32675600 
H      13.82959476      27.26526623       5.89649639        1       1.31509600      -0.16436500      -0.31946500 
H      12.79591302      27.02377767      14.90777998        1      -0.82437400       1.49722900      -0.01725200 
H      14.23127568      27.84281275      20.40002010        1      -0.50940200       0.03276200       1.47450100 
H      12.99590862      27.49122627      29.47211431        1       0.06307400      -0.59119300       0.10451500 
H       1.10926979       4.35343077       7.45757008        1      -2.45833000       0.93365800      -0.38408100 
H      -0.22797385       6.50425000      14.98151932        1      -0.31265100      -0.78666100      -0.51849100 
H      -1.70574670       4.59138805      23.11874485        1      -4.83024900      -2.56150800      -0.68772400 
H      -1.86413621       5.35274838      30.46091651        1      -0.93364000      -0.59121000      -2.24192300 
H       0.33375879      20.11663703       7.24270839        1      -1.33812500       1.25501100       1.92708200 
H       0.08651111      19.36935907      13.10344444        1      -1.06058600      -0.42455000       0.13726400 
H      -0.99852574      19.46724064      21.97574891        1       0.32607200      -0.75586300      -2.87003400 
H       1.03801611      19.49142975      30.54049446        1      -1.78688800       0.45277700      -0.02965300 
H       9.38912700       5.93175634       6.82660776        1       0.42155800       2.01443300       2.46806100 
H       8.33514414       4.92971153      14.05616017        1       0.13091800       1.60746500      -0.01721500 
H       9.97987027       4.09053533      20.87605082        1      -2.05481800       1.30098800      -0.61158400 
H       9.33766590       3.55364404      30.46936614        1       2.28362100      -1.21324600      -0.33646800 
H       9.18845470      19.29854464       6.47649596        1      -0.02769200      -3.28734100       6.56542400 
H       7.79854433      21.35754206      13.52844311        1      -1.50358600       0.27411300       0.55099000 
H       8.57219540      20.30470572      22.82969948        1      -0.72403200      -0.17794800       0.63437000 
H       8.51320699      19.84751672      29.27624212        1       0.12482900       0.96513300      -0.95012100 
H       7.50957336      10.73002117       1.15143028        1      -0.10124100       0.56703200       0.11355700 
H       8.45048346       9.37268534      11.44835373        1      -0.24567300      -1.34982400       0.49793800 
H       8.95605068      10.76935663      18.11703975        1       0.12154600       0.02373300       0.59223600 
H       8.72759682       9.97288616      25.40351377        1       0.28923700      -0.74428600      -0.03396100 