768
Lattice="17.2229276222 -0.0408033805077 -0.721114131401 0.424125017899 29.4388353053 1.25386532778 -1.54852376765 1.57100578908 31.1951589281" Properties=species:S:1:pos:R:3:Z:I:1:forces:R:3 energy=-99819.7670089 stress="-861.106069 -558.506729 647.693579 -558.506729 764.374209 671.66812 647.693579 671.66812 601.04862" pbc="T T T"
I       2.30953165       0.98037327       6.05548538       53      -0.15552900       0.56647600      -0.07503300 
I       1.87000252       1.93482511      14.09896022       53      -0.15814100       0.01388200      -0.06577800 
I       0.55571926       2.21569178      21.66545314       53       0.21425300       0.11982900       0.34513000 
I       0.79112413       2.84360727      29.36405367       53       0.10306600      -0.18080800      -0.14846700 
I       1.64231093      16.89451736       6.11269815       53      -0.15780400      -0.38558100       0.45602700 
I       1.35263202      17.12456890      13.69414915       53      -0.34651700      -0.22365800       0.53806300 
I       0.71962672      17.88249850      21.83281756       53       0.15318300      -0.23580900       0.15924700 
I       1.11658397      17.12128468      30.60607043       53      -0.33046700       0.34657100      -0.26116600 
I      10.67577454       1.59509137       4.73163055       53      -0.14295500      -0.21041200       0.20465300 
I      10.22179289       1.53703339      12.97100397       53       0.05428000       0.40564000      -0.23535700 
I       8.94476917       2.25047328      20.92811213       53       0.98198900       0.80547400      -0.01567200 
I       9.35841202       2.68957297      28.63938594       53       0.40902300       0.25455700       0.05438400 
I      10.38913584      15.90833009       6.11452131       53       0.22524800      -0.02507300       0.03803700 
I      10.37111997      16.72831827      14.24048423       53      -0.08884900      -0.28659200       0.15107600 
I       9.77726276      17.01477934      22.00060654       53       0.49678800      -0.16528100      -0.56496600 
I       8.99263680      17.45086614      29.47658675       53       0.25842300       0.16088200      -0.19410200 
I       6.60784137       8.94833057       6.38131316       53      -0.23320300      -0.29398200      -0.44095700 
I       5.80277614       9.56878557      13.84176043       53       0.16908400      -0.35195300       0.23379100 
I       5.44173449       9.87276182      21.03213747       53       0.90799800      -0.31602400      -0.21600200 
I       4.95327781      10.20738136      29.06776239       53      -0.39766400      -0.15504600      -0.11798400 
I       6.91734663      23.62343078       6.60923314       53       0.02759300       0.32145800       0.17678600 
I       5.98643966      23.80756961      15.17133752       53       0.95072700       0.79868700      -0.01360700 
I       6.28595758      23.69441873      22.74878987       53      -0.20128700       0.31339200       0.24409300 
I       5.49160681      24.71727116      30.34902582       53      -0.05067300      -0.32237600      -0.37040100 
I      15.14844558       8.89298000       5.92978907       53      -0.18586900      -0.02610900       0.05597300 
I      14.82226351       9.05708461      13.89253261       53      -0.17353200      -0.12815200      -0.32229500 
I      14.12072977       9.90382088      21.45342430       53       0.31533500       0.01121400       0.27408400 
I      13.74565333      10.11904805      29.87742455       53       0.09320100       0.18027400      -0.27335500 
I      15.50948820      23.36921363       6.64338902       53       1.08805700       0.88952600       0.62860200 
I      14.61073535      23.83452364      13.99094013       53       0.16846400       0.00024000      -0.03365400 
I      14.57526969      24.62255289      21.10501787       53      -0.81896800      -0.25510900       0.92888200 
I      14.10003089      25.13380197      30.03562049       53      -0.46011700      -0.25359400      -0.18282700 
I       6.28007721      13.37542465       2.12239652       53      -0.22810900       0.02855400      -0.04246000 
I       6.24311144      14.00918829      10.40558622       53      -0.33306600      -0.21642600      -0.05240000 
I       5.68126196      14.26224889      17.81101085       53      -0.03262300      -0.01216800      -0.02619400 
I       5.58442384      13.96755337      25.21256273       53      -0.29355600       0.11849400       0.19747300 
I       6.67372096      28.20325620       2.29755035       53      -0.15191800       0.09609000       0.03401500 
I       6.21750721      27.73260067      10.41551891       53       0.25053800       0.29395100      -0.32973400 
I       5.48267549      29.46357382      18.00418153       53      -0.05135000      -0.05992900       0.03040800 
I       5.69191201      29.21082261      26.32748751       53      -0.23255300      -0.07928700      -0.25710200 
I      15.15867985      13.00555904       2.28586185       53      -0.27715000      -0.08584200      -0.20494400 
I      15.45145364      12.86734268       9.24169485       53      -0.64092800       0.65847000      -0.10050800 
I      14.39207269      14.53746456      17.35711704       53      -0.23745100      -0.21423100      -0.45288800 
I      13.88594465      15.27011299      25.50112902       53       0.12244300      -0.06665400      -0.24654200 
I      15.68727234      27.92642917       2.56377028       53      -0.24234700      -0.01047400      -0.05430700 
I      15.50313350      28.18234358      10.47725834       53       0.18414100      -0.04369600       0.22848600 
I      14.71265938      28.39955299      18.20794077       53       0.23519600       0.07580400      -0.15840400 
I      14.56922145      28.07170490      26.41664651       53       0.34734000       0.49544100       0.03670900 
I       1.69243896       6.54390595       2.52252575       53       0.40265200      -0.46642900      -0.28191400 
I       2.04622214       6.13101170       9.84285737       53       0.12427100       0.07650900      -0.07412300 
I       1.09038634       7.00837564      17.28893800       53      -0.27514300       0.40363100      -0.20529100 
I       1.61269440       6.64377844      24.65693521       53      -0.90453900      -0.12104200       0.20231500 
I       2.58559448      21.03501080       2.96072265       53      -0.15191200      -0.08312300       0.26791900 
I       2.37782098      21.32078672      10.56315069       53      -0.00287700      -0.45295800       0.08601300 
I       1.62734699      21.65653158      19.03723310       53       0.17834100       0.01755400      -0.10434300 
I       1.59052957      21.38348359      26.55248047       53       0.00311800       0.36397000      -0.15624800 
I      10.71393785       5.82177289       2.22051515       53       0.14033500       0.28596400      -0.34863500 
I      10.94556465       5.72671010       9.89001544       53      -0.29126900       0.11979500      -0.14220800 
I      10.22631467       6.89577033      17.78997720       53      -0.29417200      -0.00703500      -0.29401300 
I      10.43417991       6.78387164      25.56783528       53       0.00261200      -0.02267100       0.06377800 
I      10.49325976      20.60078131       2.09245888       53       0.78047900       0.07622700      -0.44273000 
I      10.90600468      20.74262350      10.00271835       53      -0.23603600       0.23851700      -0.06765600 
I       9.63228081      21.78928237      17.68548631       53       0.56016600       0.26069000       0.13279900 
I      10.04284829      22.05196432      25.70526792       53       0.46502300      -0.28215500       0.03459500 
I       6.27990349       1.69718132       5.00022409       53      -0.05657100      -0.20949100      -0.01695600 
I       6.07371890       2.32528615      12.71187074       53       0.14193400      -0.36436900       0.04669000 
I       4.71282314       2.33538476      21.43203149       53       0.21352800      -0.10019000       0.04742400 
I       4.91695229       2.39648881      28.36749549       53      -0.30046000      -0.13955600       0.06377100 
I       6.28193160      15.62879956       6.57133529       53       0.31664900      -0.16021200       0.10256900 
I       6.21889020      16.78638503      13.57632813       53      -0.27381500       0.22781900       0.18557700 
I       5.40455595      16.57894239      21.22396714       53       0.06312300      -0.15899400       0.02824200 
I       4.70562909      15.96374410      29.18069173       53      -0.10794400       0.19522300      -0.04921000 
I      14.53418717       0.62123676       5.47588062       53      -0.21584600       0.00729400      -0.01508000 
I      14.51575162       1.42385810      12.57737486       53       0.19238900       0.02829600       0.11125800 
I      13.75919915       1.83502192      20.26846610       53      -0.18689300      -0.17117600       0.13523000 
I      13.92114388       2.63124172      28.59367039       53      -0.03655100      -0.07489300      -0.06926800 
I      14.55478064      15.64310470       6.04489682       53      -0.36829700       0.13324000       0.50147500 
I      14.11425893      16.36362738      12.76906887       53      -0.09461200       0.25568600       0.36850900 
I      13.92662018      16.65713903      21.24021353       53       0.09967500       0.19606200       0.01614600 
I      14.03098907      17.93275438      29.42668711       53      -0.28180600       0.02308700       0.01015700 
I       1.88235470       8.13225906       6.04429463       53      -0.28412000       0.35744300      -0.08349200 
I       1.64319323       9.15578493      13.00236168       53      -0.80923000       0.15357300       0.90222100 
I       1.51033800      10.31067568      21.22561950       53      -0.33938800      -0.14567400      -0.25218300 
I       0.60063841       9.80188611      28.83892206       53       0.29139300      -0.46412100       0.30360600 
I       2.68786889      24.07287015       6.50653417       53      -0.29337500      -0.40042200      -0.16943900 
I       1.78856949      24.03298811      15.30461925       53       0.15651700      -0.24551800      -0.31672200 
I       1.68478912      24.38094168      22.16767817       53       0.08986800      -0.27515600       0.29488300 
I       1.19640563      24.16085406      30.09195486       53       0.09611400       0.32248100      -0.11066400 
I      10.58308829       8.56941555       5.42929545       53       0.15575400      -0.13595000       0.14225800 
I      10.46764967       9.12150021      13.45302203       53      -0.29537500       0.16273100      -0.11360700 
I       9.99741577       9.15522080      21.83178301       53       0.02056000       0.13334400      -0.04638000 
I       9.67826672       9.73731338      28.62447276       53       0.26277000       0.14588100       0.19251400 
I      10.83626308      23.11644485       6.35069916       53       0.34938700      -0.29207900      -0.24762000 
I      10.58211034      24.56991168      13.10047836       53       0.09840500      -0.14169800       0.36716600 
I      10.10930372      23.85527425      21.87922120       53      -0.14810500      -0.08963700      -0.21339900 
I       9.57177308      24.62645101      29.03307947       53       0.15333200      -0.00514900       0.31689300 
I       5.85462679       5.50456996       2.50007984       53      -0.00854700       0.22484200      -0.47439900 
I       6.27823551       6.68874053       9.93482333       53       0.26807700      -0.30029300      -0.29241300 
I       5.29320285       6.85810184      17.66118698       53       0.43449100       0.01528500       0.02035500 
I       5.35890188       7.43711906      25.16685498       53       0.60246600      -0.04860700       0.05510700 
I       7.34920054      21.33669932       3.04759099       53      -0.78659600      -0.04434700       0.28571400 
I       6.62188885      21.97153559      11.05081877       53      -0.28592800       0.09632400      -0.00244300 
I       5.66081684      20.63823801      18.96485729       53       0.33300100       0.24259000       0.02091700 
I       5.89028766      21.83275607      26.29708334       53      -0.30697500       0.26128600       0.32292000 
I      15.02694409       5.79102615       1.94805862       53       0.04174100       0.36987800      -0.01716000 
I      14.86849049       6.26115171       9.71373141       53       0.38980700       0.17863900       0.32521600 
I      14.29253789       6.42513529      17.71711730       53       0.04504700       0.11089700      -0.09931400 
I      15.01417613       8.26025384      25.73268554       53      -0.23388500      -0.32405300      -0.03110000 
I      14.68140708      20.18927785       2.67802599       53       0.29328900       0.29485400      -0.59142000 
I      15.03407079      20.93550626      10.30012226       53       0.17156400       0.10635000       0.28167500 
I      14.43601877      21.93773887      18.09184823       53       0.13012800      -0.34641500      -0.69943400 
I      14.68065752      22.21402129      25.54206708       53      -0.19727500       0.34040500       0.07432300 
I       2.11641660      13.25300670       2.89170523       53      -0.10332100      -0.05753900      -0.30967200 
I       2.07513108      14.38434574      10.73576205       53       0.17193600      -0.17768000      -0.05432300 
I       1.67637117      14.95475762      17.97802977       53      -0.60466100       0.02432700       0.02729100 
I       0.65892087      15.06442518      26.43478438       53       0.81310000      -0.39175300      -0.19579400 
I       2.40118822      28.05897403       3.79881551       53       0.34191400       0.05262700      -0.12039400 
I       2.44342729      28.51834707      11.10400458       53      -0.15607000      -0.06288200       0.27312100 
I       1.90890955      28.72596052      19.11136179       53       0.05698300      -0.06368900       0.00855900 
I       1.25608474      30.22038396      26.58937695       53       0.58717200      -0.19860900      -0.12156400 
I      10.45337088      13.14611486       2.49414580       53       0.31801500      -0.27224800      -0.25610200 
I      10.89583678      14.03243452      10.49849011       53       0.24822000       0.09508000      -0.00399400 
I       9.80435635      13.72527652      17.69351679       53       0.36514900      -0.26374200       0.16376900 
I       9.53946085      14.85942350      25.50239586       53       0.60265700      -0.20936400       0.30792900 
I      11.19781810      28.29808378       2.20464939       53       0.16964100       0.00585200       0.34623500 
I      10.47384528      27.83307925      10.49235501       53      -0.04341400       0.37412700      -0.03679000 
I       9.99084148      29.54015031      18.88785722       53      -0.47946400       0.16329100      -0.24679800 
I       9.92464761      29.07714267      26.24076849       53       0.01372300       0.17228500      -0.20034300 
I       0.56613214      12.79157138       6.39177680       53      -0.02308800      -0.15005000       0.24779800 
I      -0.34421649      13.43040922      14.68559995       53      -0.17231900      -0.44083100       0.08366700 
I      -0.69714958      13.56485727      22.10882964       53       0.19154200       0.29666500      -0.15578600 
I      -1.57695057      13.94977368      30.05905801       53      -0.27530400      -0.72346200       0.13353900 
I       0.21482896      27.04518371       7.46280917       53       0.09867600      -0.16219400       0.07195100 
I       0.53738912      27.44661979      15.23680426       53      -0.30933800       0.23384300      -0.04966100 
I      -0.39283953      27.62201470      23.01156258       53       0.13446200       0.41912700       0.23279600 
I      -0.28853993      28.54377367      31.20564794       53      -0.18059000      -0.44951800      -0.31177000 
I       9.02036088      11.88544100       7.25268450       53      -0.11814800       0.34145500      -0.40307700 
I       8.12481515      12.53841806      13.44510379       53       0.32582200       0.40899000       0.57137000 
I       8.36875704      13.37373130      21.99346227       53       0.08853500      -0.57341600      -0.44675600 
I       8.01395005      13.36599655      29.59124750       53       0.28258300       0.24243600      -0.00849500 
I       8.63658638      27.36598903       6.03320441       53       0.03263900      -0.36151500      -0.14944500 
I       8.31228798      27.67517416      14.66826337       53      -0.10413000       0.08801800       0.02432400 
I       7.71992307      28.10280592      22.13445631       53      -0.08738400       0.00492000       0.08816700 
I       7.14804623      28.14646506      29.85772900       53       0.15427800      -0.16068800       0.06792800 
I       4.69198567       5.13442619       6.07869452       53      -0.26289900      -0.25358000       0.44163200 
I       4.24381509       5.43255136      13.48406351       53      -0.22276800       0.20511900       0.59106600 
I       3.34942592       6.20272774      20.98903953       53      -0.07519900      -0.13425600      -0.05243300 
I       3.49990857       6.18343331      29.30388364       53      -0.19399200      -0.05687800       0.13249100 
I       5.00632113      20.10537750       6.70511771       53      -0.27273900      -0.69629300      -0.05224200 
I       4.21828309      20.51311461      14.57819962       53      -0.24369500      -0.33020100      -0.12057800 
I       3.78272918      20.40688840      22.73184466       53      -0.22383500      -0.40367700       0.52955200 
I       3.28426075      20.53492612      31.15671355       53      -0.03771700      -0.31825600      -0.40467000 
I      13.25341076       4.71825650       6.10066317       53      -0.16593700       0.32626300      -0.11588200 
I      12.41903546       5.32485238      13.72475046       53       0.02608000      -0.41005300      -0.16260900 
I      12.47728961       5.91650481      21.42975742       53       0.12334500      -0.95744200       0.63209000 
I      12.30489393       6.40977022      29.50088803       53      -0.15892900      -0.45091000      -0.30982200 
I      14.41907258      19.66823175       6.32563076       53      -0.35418700      -0.46406700       0.06002600 
I      12.38047784      20.47850586      14.21033187       53      -0.40800500      -0.16410300       0.00118700 
I      12.35232724      20.34301252      21.43744923       53       0.25478000       0.15666200      -0.29449500 
I      12.11395730      21.42631411      29.38168110       53      -0.02759800      -0.29055500       0.20963400 
I       7.76206259       2.48120314       0.50202593       53       0.03323400      -0.13509400       0.37203700 
I       7.52948810       2.30319745       8.81954719       53       0.16451900       0.36238900      -0.14646200 
I       7.58119919       3.65341583      17.09416376       53      -0.02173900       0.02323600      -0.14164600 
I       7.45425849       3.68980772      25.05419892       53       0.02491800       0.23968600      -0.42426200 
I       8.66691637      16.72255600       2.20025156       53      -0.51949400      -0.04230400       0.11663700 
I       8.12055494      17.72411713       9.67520209       53       0.18528700      -0.20958700       0.25277700 
I       7.92796498      17.80800576      17.55039117       53       0.26574100      -0.74687200       0.36985600 
I       7.03592502      18.17340327      25.60980692       53       0.11922600       0.19545000       0.03065800 
I      17.11059169       2.38560941       1.53172398       53       0.06607200       0.44319000       0.10733400 
I      16.72024387       2.89664669       9.02084205       53       0.00512800      -0.32323800       0.12680500 
I      16.66331902       2.99611317      17.13776141       53       0.03527500       0.26422000      -0.40557200 
I      14.83174138       3.31810724      24.56903426       53       0.34036500      -0.20340600       0.03076500 
I      17.96110994      17.20194082       1.64716846       53       0.00488000       0.23350800       0.44508300 
I      17.17174747      17.66789597       9.47315084       53      -0.26159900       0.17373800      -0.15125600 
I      16.22245083      18.78042273      16.97560294       53      -0.07205600      -0.15946300       0.03992900 
I      16.14873010      18.78103565      25.61461076       53      -0.00222900      -0.36678200      -0.45447100 
I       4.04595183       9.52902943       1.92425608       53       0.14295800       0.67181300      -0.48854600 
I       4.51380040      10.30623881       9.69656465       53       0.06341100       0.27397900      -0.11804600 
I       3.56807590      11.13424283      16.89689586       53      -0.03041000      -0.46895600       0.17226900 
I       2.39563189      10.64556069      25.07979339       53       0.21177400       0.15902500      -0.04459700 
I       4.75233528      24.59619715       2.34368949       53      -0.08801700       0.26976800       0.09020500 
I       3.65850759      24.79573522      10.37605166       53       0.02160900       0.84021000       0.14330000 
I       4.65981398      24.92143056      19.02402887       53      -0.04948600       0.54354600      -0.38618900 
I       3.69839744      25.60532711      26.65983688       53       0.05846300      -0.19853600      -0.39992400 
I      12.70734115       9.77313724       1.83704321       53       0.41382700      -0.08979500       0.06096400 
I      12.35732726       9.83518410       9.58471281       53       0.03953300       0.28507700      -0.11141100 
I      12.60354614      10.25699504      17.23938288       53       0.00355200       0.85656900       0.05992300 
I      11.95067351      10.84384656      25.11251749       53      -0.26973100       0.71223100       0.00023700 
I      12.69313361      24.46939016       2.47210688       53       0.52277100      -0.28570200       0.11564100 
I      12.88778487      24.78768229       9.38749468       53       0.23625100       0.01363300       0.03883200 
I      11.36556707      25.87998158      18.13376327       53       0.19325100      -0.49518400      -0.15844900 
I      11.96590780      25.70050409      24.92179558       53       0.18231700      -0.02280900      -0.24487900 
H      -1.19454637       9.42521783       2.47569951        1      -2.56727600      -1.11701200       0.32967700 
H       1.53208900      10.52628935       8.85320825        1       0.25933500       0.23637500       1.65015900 
H       0.30123664       9.76383406      17.15820751        1      -1.02190600       1.05863000       1.87310800 
H      -1.63403841      12.66005619      25.34125632        1      -0.59716800       1.74941900      -0.14271000 
H      -0.93287750      25.08767552       1.93029845        1       1.22463700      -1.01592000       2.80876200 
H      -0.38193475      25.13806023      10.17352413        1       0.51902100      -1.89806100       1.28634900 
H      -0.11515265      24.68405808      17.40570494        1      -0.20723700      -3.14011000      -1.07643900 
H       0.72872005      24.24759943      26.58722879        1      -0.38834700       2.08107900       0.54176700 
H       7.37318072      10.33652781       1.56135418        1       1.70486700      -0.06175400       1.13617800 
H       8.52724090       9.21070021      11.36672362        1      -0.27652600      -0.23449700       2.40894400 
H       7.95229943       9.68812523      16.33242778        1       0.22483800       1.11939900       2.26983500 
H       7.05628816      11.27637488      24.70348134        1       0.82179500       1.19733800       1.18752100 
H      10.02131689      23.93497587       2.28704378        1      -1.47424000       0.97929700      -0.62986100 
H      10.12638947      24.78725286       9.67805493        1       2.61456800       2.46736600       1.42723400 
H       8.51597012      26.16578189      16.97659162        1      -2.32308000       0.20314500       2.37043100 
H       9.15232015      25.40531081      26.05167649        1       3.01381900       0.95817200       0.54960000 
H       3.73144363       2.29615858       0.75674962        1      -1.28358900       0.52869100       0.25661400 
H       2.59174422       2.32654128       9.26389188        1       0.74449300       0.76716100       0.51742400 
H       4.46575710       3.31572582      18.14984863        1      -1.44922700       0.13246500      -2.30247500 
H       3.25267466       2.88101322      25.89054281        1      -0.28938200      -0.65029800      -0.49978500 
H       4.75063315      17.06120347       4.90293994        1      -0.36760800      -0.76498000      -1.03704000 
H       4.42704137      18.05730683       8.81762058        1       0.54714200       1.93396600      -0.28087800 
H       4.28366688      18.57121646      17.64194722        1      -0.75734100       0.37466600      -0.07875400 
H       4.26486338      19.00596908      25.98118142        1      -1.89236100      -0.28458500       0.07902600 
H      12.20981065       2.90979626       1.98213447        1       0.16360700      -0.22189000       0.16218400 
H      12.44747690       0.95393750       8.69903926        1      -0.12810100      -0.42610500      -0.33991900 
H      12.85247243       4.19411455      16.34529431        1      -1.31916600      -1.67439200       1.70530700 
H      12.29416190       3.74655494      23.47697117        1      -1.62008700       0.00201000       1.81927200 
H      12.48021857      17.96470159       2.06172092        1       0.28958300       0.57652700      -0.54045600 
H      13.67674620      17.80214492       9.32803615        1       0.66883200       0.41810700       1.01430500 
H      12.26112744      17.36882018      16.94155441        1      -0.54870000       0.25928300      -0.73140200 
H      11.85017834      19.39461281      25.02642994        1      -0.19471600      -0.38661600       1.26179300 
H       5.15646999      11.37018450       5.88854356        1       0.88341400      -0.84731700      -0.30552800 
H       4.99649092      13.94202820      14.43660632        1       1.13392600       0.54693800       0.79209600 
H       4.89784330      12.53960390      22.11687280        1       0.18349100       0.03627000       0.01697900 
H       2.26293087      13.75688116      28.46826297        1       0.10788500       0.11057300       0.50453400 
H       5.15251234      25.82439286       6.51148734        1      -1.15587100       0.87409800       0.27952600 
H       5.18281793      27.30581509      14.85017693        1      -1.55677600      -0.06753400       0.34071200 
H       4.88315459      27.78696256      23.21366556        1       2.36766000      -1.33870000       1.91712400 
H       3.66249843      27.27866294      28.97247122        1       1.50141500      -0.47858700       0.26069400 
H      12.65187736      13.15604853       4.98802710        1       0.71045700       1.44115900      -0.19016400 
H      13.88173617      12.29155990      13.58209040        1       2.99030000      -1.20072000       0.72174700 
H      13.02449723      14.12950200      20.38272571        1       0.99542600       0.53833400      -0.50466900 
H      12.92470672      14.04856575      27.91674243        1       1.32888500       0.27140200       0.83705900 
H      13.06304118      25.85465746       5.99720390        1      -1.45257300       1.16136500      -1.50469600 
H      12.97520270      26.45988207      14.91078811        1      -0.26636300       0.58991200      -0.55054800 
H      12.63251657      27.09525610      21.74531580        1      -0.92094400       0.40346300       0.38636800 
H      10.42834737      28.32035986      30.90249737        1       2.64434400       0.21806900      -1.11703600 
H      -0.38485883       4.70133570       5.04571029        1      -1.18319500       0.25293700      -0.05830100 
H       0.68534590       5.87932920      13.96643976        1      -1.37747100       0.24061500       0.61246000 
H       0.32761776       6.56676081      21.41524341        1       0.41994200      -0.03194800       0.27444000 
H      -1.45280901       5.20111196      29.51513168        1       1.41663800       1.49860700       0.23789300 
H       1.44408753      20.96879156       6.26139571        1       1.18568900       1.15693800      -1.14944800 
H      -0.19972838      20.90603417      15.38054963        1       0.97653100       0.43996700       0.32617600 
H      -1.47505972      20.95149304      21.54153606        1       0.70304500      -0.60701000       1.94175200 
H      -0.24975686      21.95134227      29.40941592        1      -0.28485100      -0.88915400       1.24085400 
H       8.96809543       3.86411537       5.85966000        1      -0.65521400       0.89084200      -1.10495100 
H       7.20476319       5.82520741      11.91348814        1      -0.77289000      -0.21388700       0.75556100 
H       7.73290477       5.45004410      20.71145610        1       1.48159300       0.74623500      -1.67778200 
H       6.75719090       7.32265351      28.64515602        1      -0.56719100      -0.93600100      -4.47446000 
H       8.12351806      18.82048630       6.51629313        1       2.34452100       1.69586000      -0.21811200 
H       9.16098600      19.83140623      14.13392325        1       0.26090900      -0.75916400       0.98163700 
H       7.50240232      19.68117343      21.62158221        1       0.13760400      -0.20585700       0.39902300 
H       6.75090647      20.13327434      31.37703931        1      -0.61059500       0.51953600       0.65877700 
H       7.87799799       9.13550377       0.55511122        1       1.50532500      -0.00528600       1.51261500 
H       9.06260873       8.97839997       9.85935850        1      -0.89019500       0.81865300      -0.22884600 
H       6.95989021       9.08020005      17.52142074        1       0.84615800       0.34963600       1.05434800 
H       7.30350450      10.06694266      25.67978471        1       1.48676900      -0.80294700      -0.17586800 