768
Lattice="17.7605333513 -0.313190132973 -0.0492189883758 0.0134849478527 31.2861564266 -0.189388170172 -0.305330970281 0.0453950052819 32.66428402" Properties=species:S:1:pos:R:3:Z:I:1:forces:R:3 energy=-99805.5038061 stress="2072.507658 386.55876 -3088.635526 386.55876 745.569266 1863.411857 -3088.635526 1863.411857 1272.321496" pbc="T T T"
I       2.87808190       0.65880760       6.88651198       53      -0.67568000      -0.12940600      -0.01968200 
I       2.49355734       2.06729648      14.47069275       53      -0.64537700      -0.29910900      -0.02490200 
I       2.29764861       2.20899097      23.56473773       53      -0.71884500       0.01282100      -0.71265200 
I       2.04636966       0.83345487      31.55647163       53       0.17891100      -0.32806600      -0.52414000 
I       2.51745622      16.77829106       5.71467134       53      -0.44679200      -0.33542000       0.07536000 
I       2.48146507      16.90556909      14.79049629       53      -0.00937800       0.07490600      -0.40602800 
I       2.35750904      16.50940730      22.90742074       53      -0.30371600      -0.25061000       0.23891700 
I       1.95506033      17.04000230      30.57920010       53       0.67771200      -0.01159300       0.51914300 
I      11.41438446       0.93611677       5.67628561       53      -0.40162500      -0.08920100      -0.19818600 
I      11.34361629       0.77193037      14.20962020       53      -0.00056400      -0.10371900      -0.39790400 
I      11.40964937       1.04324952      21.92924934       53       0.01598100      -0.39429700       0.27833400 
I      10.98050114       0.93788797      30.33317148       53       0.26295200       0.07051300       0.08429800 
I      11.01994591      16.57316109       5.86717766       53       0.58050100       0.14981000       0.13952300 
I      11.23808435      17.07011055      13.64966684       53      -0.44841800      -0.36754500      -0.19400300 
I      11.25249673      17.16067814      22.32823831       53      -0.07061100      -0.31984800       0.06319600 
I      10.65749598      16.71031435      30.38893450       53       0.48933700       0.13176500       0.05006500 
I       6.84872413       8.30897962       5.65462113       53      -0.24903400      -0.17571100      -0.13725400 
I       6.09438123      10.06378995      12.79521578       53       0.43718600      -0.34671600       0.22759100 
I       5.89917648       9.67713507      22.11688774       53       0.18028600      -0.16145100      -0.04609300 
I       6.06139785       8.82298702      29.78521347       53      -0.00457300       0.05108800       0.11577800 
I       6.45654549      24.32797027       6.41946163       53       0.22255600      -0.24824200       0.36673500 
I       6.56538719      24.60603648      14.53441185       53      -0.13540500       0.02022700      -0.07746300 
I       6.19453939      24.74788707      22.85827828       53       0.07153600      -0.04863200       0.16944900 
I       5.76948959      25.57577533      30.82794367       53       0.11406100      -0.53516000       0.30014200 
I      15.50069402       9.30166951       7.04375135       53      -0.52932600      -0.59904700      -0.79821900 
I      16.21506977       9.81198454      15.04094882       53      -0.81213100      -0.48743800      -0.06599600 
I      14.98739163       9.39101175      23.35710504       53      -0.63307000      -0.06641000       0.20994800 
I      14.98790176       9.10390286      30.96643349       53      -0.26487500      -0.12526900      -0.14116100 
I      15.67943972      24.85810206       5.47610295       53      -0.11215500      -0.34733100      -0.46614800 
I      15.59027909      23.60416209      13.77867934       53       0.12468900       0.32497100      -0.48949300 
I      15.45025784      24.09983825      21.60571364       53      -0.25317700       0.22509600       0.01833300 
I      15.85557251      23.10252448      30.10341723       53      -0.39182200       0.30126300      -0.32204600 
I       6.44593363      14.26289885       1.44740311       53      -0.37877600      -0.21372400       0.62915000 
I       6.81774048      13.46854798       9.80191037       53       0.27797500       0.05630500      -0.03637600 
I       7.00925796      14.18435008      18.29846105       53       0.02882500       0.00029600      -0.16226700 
I       6.44406143      14.07017541      25.97682015       53       0.14177100       0.08097200       0.08082100 
I       6.46365067      29.69690171       1.20271104       53       0.40415900      -0.04000300       0.07871600 
I       6.77592562      29.41348620       9.31937635       53       0.00146900      -0.04589800       0.30289600 
I       6.93705325      29.51526965      17.86248107       53      -0.42527000      -0.10450800       0.06865700 
I       6.60763567      30.06975740      25.72795109       53      -0.23254800      -0.10490200      -0.09550500 
I      15.46448555      13.46875000       1.48215769       53       0.22924900       0.05429200       0.41753600 
I      16.06960027      13.36821740       9.67951638       53      -0.33867000       0.14019600       0.31378500 
I      15.95417577      13.39654936      18.35194070       53      -0.15728900       0.08705100       0.14531600 
I      15.07682978      14.47151509      27.01923815       53      -0.18943300      -0.17724300      -0.51633400 
I      15.66392137      29.50020838       2.67678817       53      -0.40772400      -0.32664400      -0.01710700 
I      15.09337962      29.81798872      11.02921407       53       0.53245800       0.04437200      -0.22501500 
I      15.84515654      30.15934043      18.48200204       53       0.15627000       0.28017900       0.19881800 
I      15.62465923      29.27685839      26.61861470       53      -0.52864200      -0.02384400      -0.55921300 
I       2.01230887       6.03222722       1.33205921       53       0.29632400       0.19924300      -0.01834900 
I       1.62608453       6.58927790       9.41876216       53       0.26124900       0.01234700       0.28088900 
I       2.48467587       6.31506321      17.63027204       53       0.18405900      -0.07113100      -0.11648400 
I       1.57612483       6.30632968      25.74467744       53      -0.09654100      -0.03259300      -0.15018100 
I       2.22831494      21.86696269       2.17254274       53       0.33787600      -0.03534300      -0.14865500 
I       2.36610892      21.29020442      10.86293508       53      -0.39728900      -0.12353600      -0.79160600 
I       1.48021305      22.67964990      18.58385283       53       0.08833000      -0.03352500      -0.01707300 
I       1.57891629      22.00292121      26.86859892       53       0.12960600       0.51789500       0.30597700 
I      11.37570387       5.75240512       2.54383742       53      -0.48943300       0.09634100       0.34566100 
I      11.02559006       6.61721603      10.83353592       53       0.20896100      -0.13843900       0.24930300 
I      11.28804814       6.52939604      18.57221151       53      -0.17610300      -0.02886500      -0.30873700 
I      10.32849059       6.06909887      27.14708651       53       0.35662200       0.09682000       0.06210300 
I      11.21614440      21.96030951       1.20255800       53      -0.38517100      -0.24406900       0.83880500 
I      11.09612765      21.73691258       8.89987275       53      -0.10652600      -0.29409800       0.08963500 
I      10.80947584      21.67391684      17.43112394       53       0.00768400       0.28169700       0.40988000 
I      10.46777928      22.41184253      25.68082978       53       0.20415900       0.04606300      -0.14674300 
I       6.51225443       1.13502715       5.71822495       53       0.10906900       0.23201300      -0.34231700 
I       6.87315049       1.43722997      13.47645510       53      -0.02523800      -0.26494900       0.42088300 
I       6.88870965       1.16535681      22.10074192       53      -0.50321300      -0.39492500      -0.31016200 
I       6.84347483       0.92261856      29.83497831       53      -0.14756700       0.25385000       0.24722900 
I       6.42506292      16.18333622       5.93364641       53      -0.14753500      -0.10238800       0.43762200 
I       6.59389055      16.93930850      13.52942563       53       0.24350300      -0.21309900      -0.40891100 
I       6.18994000      17.03647725      22.05617946       53       0.12225300      -0.49741800      -0.25022700 
I       6.06625639      16.91428528      30.16089023       53       0.21887300      -0.02314500      -0.07783100 
I      15.73633116       0.80442912       6.59061446       53      -0.15398500       0.24735300      -0.15739900 
I      15.61657764       1.19752601      14.60979778       53      -0.39370600       0.26392500       0.32942600 
I      15.33571384       1.31889871      23.66304409       53       0.29438300      -0.32187400      -0.46936200 
I      15.35708754       1.29713016      31.34979187       53      -0.20426500      -0.23130200       0.19957200 
I      15.33112771      16.20239084       6.43814997       53       0.41020200      -0.16903700      -0.22499600 
I      15.50487612      16.16794438      14.75752719       53       0.60732500      -0.32626900      -0.09607200 
I      15.70515264      16.15887109      22.57473013       53       0.16153500       0.94818600       0.66331800 
I      15.38370646      16.36621607      31.24809004       53      -0.76074800       0.65778300      -0.30665500 
I       1.93115635       8.21910581       5.33055183       53      -0.20527500       0.06486300       0.21210000 
I       2.19262273       8.80175922      13.58774750       53       0.02811600      -0.23938700       0.19036800 
I       1.99403986       8.25525919      21.34794779       53      -0.12553000      -0.10357000       0.24178300 
I       1.74108154       9.21744700      30.31452293       53      -0.21059500      -0.00954500      -0.07983100 
I       2.21325265      24.01132957       6.42893078       53      -0.56913500       0.04523300       0.25548000 
I       2.05376766      25.39420858      14.38637433       53       0.10798300      -0.24568100       0.18285100 
I       1.34987215      25.40518161      22.52139332       53       0.45807400      -0.23513800       0.45575100 
I       1.61743262      24.05862126      31.13663134       53       0.43821600       0.31122500      -0.00785600 
I      10.84215110       9.03722088       6.75995426       53       0.26265400      -0.30030300      -0.02215100 
I      11.61016362       9.70878495      14.57433003       53      -0.08388600      -0.53398800       0.15785900 
I       9.97300096       8.13442724      22.69112593       53      -0.21252600       0.63676100       0.37756700 
I      10.01938869       8.42509587      31.53055465       53       0.63143000      -0.06880400      -0.09377000 
I      11.19500843      24.35236805       5.23990874       53      -0.09065500      -0.20593000      -0.02482100 
I      10.74750650      23.31663999      13.67567564       53       0.50098100       0.32716800      -0.06769000 
I      11.13979534      24.93673144      21.25953910       53      -0.58112700       0.37025000      -0.03240400 
I      10.69669282      24.09544700      30.16140648       53       0.20656500       0.25475700       0.46244600 
I       6.83240589       6.07207500       1.80138375       53       0.04700800       0.07130000      -0.15711000 
I       6.78633954       6.39394256       9.70250415       53      -0.08610900      -0.08893900      -0.08278900 
I       7.25114428       6.08352757      17.63631002       53      -0.49080800       0.39049000       0.19271000 
I       5.96633595       5.81337969      26.28679336       53      -0.16506700       0.35866300       0.17913700 
I       7.04737842      22.22706600       2.66962483       53       0.01874300      -0.20816100      -0.51298200 
I       6.25304898      22.08227498      10.95887237       53       1.15029900      -0.50012500      -0.16364700 
I       5.90610414      22.31193638      19.07094849       53       0.56203900      -0.29422800      -0.49402500 
I       6.23500137      22.63280917      26.63424630       53      -0.36328000      -0.27776700       0.13266500 
I      15.55837311       5.82370689       2.73959209       53      -0.21343000       0.46700100       0.10116900 
I      15.48875785       5.97097207      10.80228598       53      -0.20140000      -0.04305100      -0.28246700 
I      15.53326623       7.29421714      19.62684116       53      -0.01645600      -0.05571300      -0.43757900 
I      14.72147584       6.05672092      26.95218173       53      -0.30312500       0.34304700      -0.05371400 
I      16.20070432      21.44430441       1.79686292       53      -0.84913200       0.34696200      -0.16427300 
I      15.81300060      21.67306083       9.66345525       53      -0.28778600       0.03120500      -0.36309300 
I      15.25362370      20.95491212      18.52589418       53       0.29257100       0.16150100      -0.50486200 
I      15.27727770      21.93562400      25.75889699       53      -0.34647300      -0.01691100      -0.11032800 
I       2.35814263      13.64130469       2.49477453       53      -0.35114000       0.27166500      -0.01561400 
I       2.72913633      14.33000220      10.56788948       53      -0.32111600       0.13243200      -0.13159200 
I       2.61725014      14.35861882      18.75916939       53       0.27954500      -0.10852200      -0.06841000 
I       1.64534321      13.84232703      27.22250203       53       0.51906000      -0.31287400      -0.23387500 
I       2.46535598      29.63218681       2.54736654       53      -0.29545800       0.06252300      -0.16159400 
I       2.26468563      29.73853803      10.40112893       53      -0.16560600      -0.11641800       0.42828000 
I       2.43431825      31.28472396      18.94025560       53       0.26828800      -0.08117900      -0.12533100 
I       1.64999157      29.49043621      27.74512155       53       0.48725600      -0.14451400      -0.13442900 
I      10.67787389      13.80651953       1.72112194       53       0.33539200       0.42061000      -0.21430400 
I      11.50831079      13.51053630       9.55763967       53       0.02609100       0.04327500       0.38569300 
I      11.60740684      14.44108748      18.39021930       53      -0.58649800       0.32479300      -0.38609900 
I      11.08995092      14.67635529      26.28066662       53       0.22391700      -0.12784900       0.13277400 
I      11.36112009      29.36711071       1.50001348       53       0.04832000       0.57156700       0.23473600 
I      10.98689825      30.02636825       9.31855503       53       0.80118500      -0.50239100       0.21495700 
I      11.69153753      29.85910572      18.12677258       53       0.21397100      -0.28511300       0.02694300 
I      11.58593520      29.98421976      26.01258378       53      -0.03560000      -0.71989100      -0.29074100 
I       0.37727144      12.34322363       5.95571797       53       0.14063700       0.74816800       0.43596400 
I       1.28042115      12.77133119      14.56832471       53      -0.06513400      -0.44598400      -0.51233200 
I       0.09395898      12.39223856      22.74217835       53       0.14828700       0.56019700       0.38929800 
I      -0.41213314      13.09027872      30.64302736       53       0.16521300      -0.38882800       0.25572400 
I      -0.28983915      28.43449245       6.49832771       53       0.37623900       0.57488900      -0.12405700 
I       0.71167713      28.94628994      14.83749924       53      -0.56217000       0.12816400       0.57334400 
I       0.80764094      29.63654848      22.40156532       53      -0.32476800      -0.20376400      -0.08215400 
I      -0.78864448      28.06458024      31.04596376       53      -0.15076700      -0.01148300       0.35788700 
I       9.16460604      12.37367674       5.38916753       53       0.04219300      -0.15569300       0.44721200 
I       9.05395948      13.04014863      14.14883539       53      -0.12180000       0.04003800       0.32532800 
I       8.99488159      13.06435664      22.41599811       53       0.13504300      -0.08711600      -0.23557400 
I       8.72900968      12.98252157      30.30846863       53      -0.04882000       0.02202700      -0.03826000 
I       8.94096629      28.65568253       5.52577902       53       0.17427100      -0.71802800      -0.16967400 
I       8.72817611      28.00597577      13.74770079       53       0.02639100       0.43006700      -0.05312800 
I       9.11005000      28.07591956      22.08343707       53      -0.25342600       0.10835700       0.25740600 
I       8.77722472      28.21078944      29.55045479       53       0.12789700       0.63789300      -0.04350000 
I       4.03187085       4.61157771       6.34383695       53       0.29060100       0.11837300      -0.46190600 
I       4.76446664       5.25825529      13.95547734       53       0.09804400       0.11536100      -0.39632800 
I       5.29408217       5.19070710      22.24187118       53      -0.31515200      -0.03959900      -0.33283300 
I       4.37125343       4.70453376      30.24989986       53      -0.40515900       0.31816400       0.19721700 
I       4.77493158      20.19982544       6.10147315       53      -0.11887200      -0.19610800      -0.05412800 
I       3.89819163      21.30432500      15.18102311       53       0.73098200      -0.54090100       0.22444000 
I       3.14522201      21.22759741      22.99689460       53       0.35354400      -0.25120800      -0.07064600 
I       3.98415065      20.85372654      30.84922861       53       0.42558300       0.22570400       0.30473900 
I      13.08573034       4.54941758       6.27206381       53       0.00326000       0.39586000       0.32081200 
I      13.76044400       5.41511920      15.41195782       53      -0.45081400      -0.16401300      -0.33500800 
I      12.68486611       5.26112328      22.40864194       53       0.03638400       0.02374100       0.42926000 
I      12.74440414       4.90027925      31.73170351       53      -0.06440800      -1.53782300      -1.33762200 
I      14.15706900      20.58777607       5.57169335       53      -0.28561800      -0.12619000      -0.14745800 
I      13.77894665      19.77560818      13.96902759       53       0.03901900       0.57987800       0.08441700 
I      12.13233627      20.74345952      21.72559571       53       0.61942900       0.21333400       0.25483800 
I      12.06444322      20.36120711      29.46473757       53       0.22457100      -0.21657700       0.59475300 
I       8.93078294       2.09150552       1.70357733       53       0.24431100       0.87405900      -0.87085300 
I       8.66873501       2.24152135       9.75953435       53      -0.11719900       0.44479500       0.60900800 
I       9.54762263       2.02482456      18.36181898       53      -0.62381700      -0.11095600      -0.56305300 
I       8.92023740       2.91423017      25.28492510       53       0.23575700      -0.73810900       0.30182600 
I       9.08457073      17.89459212       1.96209715       53      -0.01872500       0.43305100       0.13918100 
I       8.92630394      17.61581069       9.59949535       53       0.04631900       0.21574900      -0.29672600 
I       9.07416292      18.43932402      18.36774167       53      -0.06978700      -0.36463500       0.10153000 
I       8.24963952      18.25602688      26.16750815       53       0.14613100      -0.02819600       0.22131300 
I      17.96699375       2.27296106       1.97374051       53      -0.36418900      -0.53129900       0.56246200 
I      17.77162780       2.24998248      10.90021586       53      -0.05091200      -0.15636400      -0.46354800 
I      17.35604511       3.31005936      18.71184199       53       0.15235400      -0.32661500      -0.16187700 
I      18.00209318       2.00043187      27.72106454       53      -0.15907900       0.20435200       0.21535400 
I      18.46252095      17.77490390       2.34144587       53      -0.79408300      -0.56069300      -0.35184100 
I      17.66051395      18.01599338      10.49708050       53      -0.01086700      -0.92252500      -0.05576200 
I      18.19741118      17.76398289      19.07760781       53      -0.37008000       0.16201600      -0.39957100 
I      17.78129999      18.06446859      26.72446904       53      -0.20697300      -0.45844000      -0.02484600 
I       3.91314067      10.00651591       2.08980472       53       0.61055900      -0.55350000      -0.20084500 
I       3.78070005      10.48592279       9.56977480       53      -0.00191200      -0.52332900      -0.34992700 
I       4.29040598      10.12889051      18.26927104       53       0.23060700       0.75996900      -0.56373100 
I       3.92895898      10.14460373      26.10252696       53      -0.15934800      -0.44786000       0.33742300 
I       4.08208869      25.92937134       3.05229453       53       0.03018400      -0.09778900      -0.66092900 
I       3.96634076      25.39925893      10.09861085       53      -0.09851800       0.22374500       0.00869900 
I       4.06406557      26.37842612      19.21038103       53       0.16967500       0.59685100      -0.30543200 
I       3.92066008      26.24371438      26.81311852       53       0.02484600       0.33506500       0.45913000 
I      12.86618903      10.03567939       2.62209541       53       0.20462700      -0.04030000       0.05393500 
I      13.44096184      10.12973938      10.24970818       53       0.62984300      -0.32292000       0.28961700 
I      12.72424049      10.91670347      18.71951240       53       0.23174000      -0.69231100       0.15533900 
I      11.96154869       9.92843748      27.17128433       53       0.20922600       0.18730900       0.16327400 
I      13.72065744      25.60905358       1.29082182       53      -0.02671700      -0.03142200      -0.14792300 
I      13.11930038      25.19808456      10.06937289       53       0.02744700       0.80474300      -0.21988300 
I      13.49696565      25.84167683      17.67579968       53       0.02271300      -0.41838500      -0.06524200 
I      13.33446167      25.63913428      26.41921561       53       0.13042400       0.71081600      -0.52940900 
H       1.02744243      10.50764849       2.03021670        1       1.43015500       1.57490500      -1.32465000 
H       0.17820802       9.15891496      10.41756552        1       0.36105100      -0.27843600       0.43185400 
H       0.22631083      10.93384405      17.71578928        1      -0.37302700       0.29624300      -1.54422600 
H      -1.20947851       9.47062978      27.06576157        1       0.34626900      -0.94976100      -0.47277500 
H       0.16882049      25.68621376       0.51059765        1      -0.13504700       0.41227900      -0.03459400 
H       0.59434574      25.51391108       9.64880821        1       0.63783300       1.23059900       0.49923700 
H       0.81029773      25.57178607      19.19910600        1      -0.72892700       0.72426700      -0.79692700 
H       0.62667308      26.09276703      25.66485435        1      -0.44186100      -1.05224700      -0.82444800 
H      10.09302383      10.48734811       1.69505703        1       2.97434200       0.06094000      -1.22136300 
H      11.07473049       9.99796296      10.89884563        1       0.06561300      -0.57437700      -0.81943900 
H       9.04231612      11.10831073      18.42574215        1      -1.20679600      -0.55944800       0.45186700 
H       6.90549722      10.54076757      25.97335939        1       0.87524800      -0.71302600      -0.44950600 
H       8.86909520      24.71026655       1.65643867        1      -1.12715900      -0.11549800       0.40884900 
H       8.59584977      24.00797797      10.53187079        1      -1.35688600      -4.82414300      -0.46715200 
H       9.27237849      26.31247465      18.73673971        1       0.69487300       1.44021200       4.07803400 
H      10.45544418      25.54745256      26.45477009        1      -1.14648200      -0.19469700       0.29425600 
H       5.08276936       2.33672608       3.18642268        1      -0.70517300      -0.85017300       0.37560000 
H       3.14086341       1.63683821       9.62420636        1       0.06863800       0.16569100       1.51214300 
H       4.49541351       1.36563231      17.79107726        1      -2.14565600      -2.09766700       1.13384200 
H       4.85357524       1.50960405      27.16642477        1      -1.18696600      -0.52965500       1.14196200 
H       3.83105767      16.99368904       1.05704361        1       0.77319900       2.03805900       0.04457100 
H       4.10494688      18.55213560      10.48369656        1      -0.20743000       1.46874000       0.42947300 
H       4.30876478      19.59551469      18.03515921        1       1.86276400       1.27081500       1.28338100 
H       5.05452106      18.07526410      27.18890240        1       0.90070200       0.27483000      -1.20966200 
H      14.58009049       1.29594257       2.02681103        1      -0.87776000       0.80881200       1.03434900 
H      13.76072968       0.97639409       9.58529927        1      -0.56235600       0.57151500      -0.80601000 
H      14.53521379       2.46645073      19.76935799        1      -0.12578800      -1.67804900       0.52823100 
H      14.89606699       1.41877017      26.67889549        1      -2.38389300       2.13297000       0.97407300 
H      13.69829407      18.02260067       0.97228647        1       0.44013500       0.52633700      -1.47889200 
H      13.93825615      16.14038783       9.84820627        1      -0.70635300      -0.87168000      -1.53118200 
H      13.58693026      16.35548382      19.43266791        1      -0.41571700       0.52529400      -0.93434700 
H      13.37396970      19.43703263      25.58984082        1       0.94708400       1.20422900      -0.72999800 
H       4.61560575      11.17121974       5.41182576        1      -0.47221700      -0.80468400      -1.41142100 
H       4.01253770      13.52304280      13.96812465        1       1.62560200      -0.71754500      -0.52270100 
H       5.22922240      12.76647775      22.16116963        1      -0.45538500      -0.16242600      -0.46191200 
H       3.20131458      13.24066492      30.64513728        1       2.15594300      -0.13568300      -0.24087600 
H       5.59395979      27.74737228       6.67548892        1      -0.75515700       0.53178800       0.64744100 
H       3.16365120      28.35864026      14.01763441        1       2.12379700       1.49124500      -0.61775300 
H       5.03050894      28.17037745      24.06036491        1      -0.31043300       0.32171800       0.30326700 
H       5.80476961      29.35220963      30.54584942        1       2.65118500      -0.09819100       1.05098800 
H      14.30308842      11.68884911       5.05145412        1      -0.09532100       0.75971800      -0.00938000 
H      13.85261036      13.87751930      13.37110988        1      -1.73938800       0.09018300      -0.10495500 
H      12.96362101      13.64738755      20.81967493        1      -1.25830300      -0.31866000      -0.87997400 
H      14.02419783      13.53483716      29.97907452        1       0.02367800      -0.54299900      -1.00645800 
H      13.86621366      26.89140509       6.55269193        1      -0.22586000      -0.65711600       0.10314300 
H      13.23065808      28.15824436      15.93317753        1      -0.30048400       0.02478500      -2.12768700 
H      15.36773715      28.32413973      21.49015242        1       0.75114800       0.33628900      -0.80677900 
H      13.70917018      28.18132396      29.76819124        1       1.76681500      -0.74844900      -1.22113000 
H       0.01202902       3.47766572       7.22884009        1       0.97943700       1.73411900      -0.46705600 
H      -1.31143745       6.02432419      15.05033533        1       0.18891300      -0.83704400       0.09786100 
H      -2.35970365       5.18220516      21.70141116        1      -0.88866700      -0.24753000      -0.61266500 
H      -1.51451462       5.03077523      30.08433506        1       2.06829200       0.24999800       0.81211100 
H      -0.76739423      20.61811287       6.70673989        1      -2.03258000      -0.06247400       0.95060400 
H       1.81968439      20.78194524      13.34739057        1       1.01562900       0.44921200       0.53481100 
H       0.28230545      19.55622398      21.73405479        1       0.97094700      -0.00834800      -1.43650800 
H       0.59513951      19.26268941      31.05962012        1      -0.53282300       1.92759700       0.21825800 
H       9.41745417       3.39783650       6.27046198        1       0.47287900      -0.13452700      -0.15628300 
H       8.03944697       5.28257758      14.86190111        1      -0.99978300      -0.40744000       0.18301700 
H       9.52228007       3.03355416      21.42096261        1      -2.33002600       1.82074100      -0.65260900 
H       8.81120695       5.32945402      29.56934616        1       0.70962000       3.70270200      -2.37574200 
H       9.41126621      19.02520455       5.92392423        1      -1.31772200      -0.01686800      -0.56704700 
H       8.24234763      20.75629660      15.04208336        1       1.43547200      -0.42656500      -0.15230700 
H       7.32324697      19.39655738      22.07930088        1      -0.60875100      -1.29315900      -0.71801600 
H       8.88733258      19.91240740      32.33349724        1       0.56919700      -1.55138100       1.52301500 
H       8.84369652      11.31669434       2.44049499        1      -0.60836000       0.57456800       0.97566800 
H       9.63421014       9.46963501      11.95211015        1       0.51779200       1.01154900      -0.73666900 
H       8.30953975       9.64486485      17.54768502        1       0.74505600      -0.18482200      -0.32537100 
H       7.58447052       9.22015276      24.69421255        1      -0.93724500       0.39676600       0.39313800 