768
Lattice="19.3613975071 0.0112756250734 0.436317753622 -0.000213908949938 22.2477395809 -0.0120101803354 0.859618340436 -0.0249153476453 39.6017549615" Properties=species:S:1:pos:R:3:Z:I:1:forces:R:3 energy=-99806.1515871 stress="-239.322732 -566.163818 -2424.719837 -566.163818 -2217.568597 1252.36191 -2424.719837 1252.36191 378.585468" pbc="T T T"
I       3.90345189       4.07986926      19.76383491       53      -0.18260900       0.01751100       0.53251800 
I       4.44180219       4.74324026      39.67460508       53       0.15196800      -0.25875200       0.18597100 
I       4.02736874      14.90347849      19.87083479       53      -0.13008600       0.29481600      -0.27496900 
I       4.54480036      15.52343102      39.76458306       53      -0.04689800      -0.56554700       0.28780400 
I       8.73154539       3.89634648      20.45437538       53       0.68483500       0.26369600      -0.44578800 
I       9.74422870       3.98844134      40.52740962       53      -0.65781500       1.39205000      -0.90723900 
I       9.03025814      14.96973678      20.18365443       53      -0.18907600       0.10119200      -0.23621500 
I       9.18693837      15.29634447      39.38401179       53       0.20233100       0.15319600       0.03042600 
I      13.28090847       3.69858765      20.29003579       53       0.52415600      -0.13268600       0.15323800 
I      14.48294358       4.58873443      39.92374847       53      -0.05558800      -0.22586300       0.07478300 
I      13.49629965      15.17229645      20.29736318       53      -0.19995800      -0.02259900      -0.35916200 
I      14.27014756      15.53653799      39.80178001       53      -0.90609200       0.56721300      -0.57495800 
I      18.08679984       4.22371596      20.41773035       53       0.47607700       0.12065900      -0.14894900 
I      18.59466711       4.28758998      39.52876358       53       0.20504000      -0.29658100       0.13285100 
I      18.58526420      14.89146427      19.65262042       53      -0.55756800       0.28277200       0.09474800 
I      18.62135831      15.56245427      39.62218024       53      -0.06056000      -0.00613800      -0.21728900 
I       1.16686525       8.13770085      -0.34961400       53      -0.21514600       0.38225000       0.09793200 
I       1.54239250       7.72466991      20.17954778       53      -0.09222700      -0.32585900       0.01868800 
I       1.52188449      18.69002207       0.31315362       53      -0.44969600       0.28536300      -0.45758200 
I       1.74934840      19.01147778      20.10774198       53       0.01997800       0.00061900      -0.33987300 
I       5.85008387       8.08279083      -0.01070655       53       0.18880900       0.46925600       0.10736000 
I       6.35304435       7.66456755      19.79061893       53       0.59298700      -0.50915100       0.00348500 
I       5.82223131      19.19052663       0.54723963       53       0.09181500       0.24085400      -0.21228800 
I       6.99737645      18.31256358      19.89563006       53      -0.49311400       0.57653100       0.02230300 
I      10.44402881       8.24827563       0.21588256       53      -0.02994700      -0.11873000      -0.16451900 
I      11.67111245       7.63411983      19.93499133       53      -0.86617000      -0.21608400      -0.09570800 
I      10.51787784      19.40171026       0.56986858       53       0.37817700       0.39570900      -1.03338600 
I      10.98989317      18.93703646      20.83446333       53       0.75914200       0.08263200      -0.51376700 
I      16.08897702       8.22041500       0.22373968       53      -0.46265000       0.02515800      -0.15624700 
I      15.83076773       7.48208203      19.58328768       53       0.12979300       0.02464500       0.24454500 
I      15.80416432      19.26218210       0.64816632       53      -0.23648100      -0.43634700       0.24133200 
I      16.36224873      18.68905948      19.69483212       53      -0.36382300       0.11814000       0.30206700 
I       3.02356870       9.10767401       9.99073354       53       1.14111900       0.06024600      -0.40234800 
I       4.97442135       8.91522255      29.82908040       53      -0.59882500      -0.29341900      -0.09735400 
I       3.92078255      20.41273578       9.61893053       53       0.18053600       0.40784900       0.20830400 
I       4.56217643      19.64145780      29.33542900       53       0.19716600       0.16201300       0.07698400 
I       8.47379116       8.83348713      10.58733973       53      -0.00661000       0.03782100      -0.19696600 
I       9.24258194       9.06131025      29.31432567       53       0.52947000       0.31250600       0.20049000 
I       8.56253008      20.34131441       9.83092943       53      -0.00852100      -0.26834700       0.79888900 
I       9.25335307      20.20158646      29.55761683       53      -0.09835900      -0.61268700      -0.22148600 
I      13.27375261       8.98826943      10.86306029       53      -0.10245300      -0.12728500      -0.26753300 
I      14.05675220       8.71935359      30.03429476       53       0.52944300       0.15330900      -0.10116200 
I      13.72452839      19.80788905      10.25531672       53       0.14521400       0.15618600       0.00392300 
I      14.13028844      19.65370409      29.03857685       53      -0.02981900       0.11726600       0.37486100 
I      18.46241185       9.48866704      10.90152254       53      -0.60633200      -0.73849000      -0.68523600 
I      19.51116909       8.48302557      30.06787342       53      -0.53986100       0.14847600      -0.02521700 
I      18.66512085      20.11810546      10.39124576       53      -0.87056400       0.37781000       0.30301100 
I      18.94713054      19.84927236      29.64445882       53       0.03426900      -0.48431500       0.12247700 
I       1.56389338       1.75706123      10.25657999       53       0.24564800      -0.36452200      -0.03145200 
I       1.67346420       1.29333690      29.90821562       53       0.36927000      -0.24551400      -0.19431700 
I       1.68482156      12.81214214       9.73374212       53      -0.05422500       0.26370700       0.23815100 
I       2.06254037      12.31091109      29.59825449       53       0.32379000       0.25602500       0.10856500 
I       5.77954639       1.60884251      10.17004877       53       0.46620600       0.01037300       0.14615300 
I       6.69568916       0.99961267      30.29469057       53       0.15195500      -0.04739200      -0.43013600 
I       6.31308071      12.67943686      10.05899270       53      -0.21751400       0.09852500      -0.02840700 
I       6.61457226      12.38214782      29.02189296       53       0.04057500       0.23163200       0.65412500 
I      11.09869916       1.58560816      10.76869820       53      -0.15638700       0.05789300      -0.26795000 
I      11.62636613       0.84125849      30.77590196       53      -0.04453000       0.34693100      -0.19480700 
I      10.84056151      12.40852723      10.14202569       53       0.18951200      -0.01578700      -0.20185200 
I      11.84204084      11.98567767      30.08713330       53      -0.35215100       0.25472100      -0.23852100 
I      15.33066778       1.67019805      10.22542294       53       0.31691800       0.08649700      -0.04956300 
I      16.66541119       0.75674932      30.15300010       53      -0.11376600       0.64707500       0.05712900 
I      16.09637202      13.14282318       9.69794769       53      -0.13746600      -0.08084400       0.23626100 
I      16.61014297      12.27020684      30.08626757       53       0.09104500       0.05806200      -0.12991300 
I       1.49731119       0.74651701      18.11050640       53       0.29489300       0.06640700      -0.04845300 
I       1.56300949       0.80089327      37.44221193       53       0.44381300      -0.19983600       0.03382700 
I       1.67901070      11.78911149      17.73609612       53      -0.15207600      -0.31201100       0.05104900 
I       2.25993797      12.20701289      37.12121431       53      -0.11988100      -0.19869300       0.35577300 
I       6.54778020       0.61937740      18.35924719       53       0.15392600      -0.31432000      -0.57350200 
I       6.46238210       1.05061381      37.73917910       53       0.25577200      -0.05621700       0.23623800 
I       5.78072995      11.44816282      17.57977307       53       0.69819500       0.15074000      -0.23316000 
I       6.54717783      12.37503131      37.76774705       53       0.47219500       0.20671000      -0.35180200 
I      11.43490652       0.39889580      18.11557463       53       0.01913300       0.78066900      -0.29935500 
I      11.81412572       0.93227978      38.19950713       53      -0.03585400      -0.34207400      -0.01243000 
I      10.84914814      11.87894114      17.87862809       53      -0.04770400      -0.53577500      -0.00620700 
I      11.61990850      12.01593671      37.57172775       53       0.11935500      -0.13640400       0.22883600 
I      15.87245980       0.53293397      18.21075402       53       0.25009100       0.50468000      -0.26935000 
I      16.41315200       0.38984603      37.78060681       53       0.10902600       0.13076200       0.16852300 
I      16.52770327      11.60794171      17.92174588       53      -0.26463800      -0.04332600       0.44217200 
I      16.01188706      11.85131662      37.24200022       53       0.25328200       0.12202400       0.16006100 
I       3.37355300      11.40280303       1.58511274       53       0.02483800       0.14804600      -0.03254700 
I       3.80029833      11.04454186      21.48777557       53      -0.00714700      -0.38012400       0.36799900 
I       3.19832424      22.94358338       2.08883906       53       0.37474500      -0.25261800       0.22496800 
I       4.10005036      22.16187027      22.11154718       53      -0.45538900      -0.06983000       0.25342000 
I       8.68863848      11.39240624       2.57612768       53      -0.25913300       0.28925900      -0.66847700 
I       8.66397640      10.65545560      21.92535256       53      -0.06880100      -0.03953800      -0.23915800 
I       8.71340753      23.01475654       2.47924408       53      -0.25358700      -0.96573000       0.17923100 
I       8.48748335      22.10397662      21.99918646       53       0.22931900      -0.55581100       0.11066400 
I      12.87113258      10.92670729       2.08447108       53       0.21220300       0.72763900       0.30968900 
I      13.48259636      10.70389690      22.08044159       53       0.28502700       0.25941300       0.33183300 
I      13.15869482      21.99985846       2.36454953       53       0.24017200       0.46672100       0.37968900 
I      14.01912541      21.93754234      22.04879518       53      -0.45019100      -0.10065400       0.13894400 
I      18.10423140      11.18772464       1.96230485       53       0.10040900       0.59276000      -0.02633400 
I      17.89419501      10.98431640      22.32926815       53       0.35284200      -0.03987400      -0.21927300 
I      18.43649759      22.51953209       1.72575788       53      -0.44897400      -0.12388100       0.62719400 
I      18.69338205      22.38047917      22.57263297       53      -0.22874500      -0.07546800      -0.55109600 
I       1.41316526       5.52846269      12.31018057       53      -0.26162000       0.10464400      -0.54677500 
I       2.16590884       5.46331328      31.98613119       53       0.05023600      -0.22713100      -0.26319700 
I       1.70571703      17.14582042      11.12139369       53      -0.22756300      -0.46129600       0.78916400 
I       2.08516628      16.66897701      31.70735234       53       0.01872800      -0.23459500      -0.33292200 
I       6.16668123       5.84724958      12.46372583       53      -0.13024000      -0.32670000      -0.25295100 
I       6.90905930       5.23039065      32.27886357       53       0.03508900       0.08371800      -0.37898900 
I       6.41826741      17.05898146      11.42116489       53      -0.15051300      -0.08703800       0.09627900 
I       7.04274331      16.48533820      31.60464375       53      -0.10579900       0.09953000      -0.09264700 
I      11.00459638       5.51330340      12.69881984       53      -0.62004500       0.38052700      -0.11465600 
I      12.04004889       5.51571593      31.96565950       53      -0.19990600      -0.27407200      -0.46129500 
I      11.19652215      16.70798109      12.20592014       53      -0.11190800      -0.05552600      -0.12807000 
I      11.62613406      16.38763226      31.74516982       53      -0.20970900       0.22359700      -0.12977500 
I      16.14089837       5.81621966      12.72745740       53      -0.22858400      -0.06648400      -0.41838600 
I      16.32301057       5.18369897      31.96775722       53      -0.13988100       0.21259900       0.42332000 
I      15.67859876      16.39221516      12.42668830       53       0.35822600       0.35866200      -0.10743400 
I      16.48402952      16.74964289      31.31504130       53      -0.09099100      -0.23293400       0.05805500 
I       3.70422193       4.79005000       7.64807638       53      -0.04556400       0.73951200       0.25081000 
I       4.72747154       4.46198228      27.92290244       53       0.12496300      -0.02675200       0.00229700 
I       3.84993934      16.45026823       8.02741666       53       0.05310300      -0.50521400      -0.51522200 
I       4.83095201      15.66136395      27.42559742       53      -0.18301800       0.11780200       0.39345200 
I       8.29938474       5.16617559       8.23416370       53       0.16482900       0.06352900       0.25862300 
I       9.42504325       4.71573076      28.02845238       53       0.09911000      -0.26494500       0.05918500 
I       8.88330976      16.45772376       7.87346074       53      -0.18447100      -0.35671900      -0.28667800 
I       9.38804508      15.51645073      27.84845708       53      -0.02699100      -0.24572000      -0.39847500 
I      13.54709495       5.11487982       8.47136451       53      -0.05583300       0.32847500      -0.23242200 
I      14.24126683       4.85281411      28.14126816       53      -0.03209400      -0.32502000      -0.26970200 
I      13.41867794      16.23697780       8.28388845       53       0.09738000      -0.34520600      -0.13436100 
I      13.76972675      15.67861894      27.38314558       53       0.05205900       0.15047000      -0.02436300 
I      18.08414616       5.23530148       8.68759921       53      -0.06166900      -0.67258500      -0.29419900 
I      18.98440014       4.35302897      28.55044268       53       0.02651100       0.38147100      -0.54554800 
I      18.72397911      16.27464999       8.10495764       53       0.00738900      -0.21032500       0.10750400 
I      19.23055283      15.47281633      27.98680269       53       0.00678400       0.25404600      -0.58737600 
I       0.55839821       3.81467866       3.71426758       53       0.51571700       0.30845400       0.05266900 
I       2.25447925       3.41338850      24.29742220       53       0.02493700       0.13790100       0.15152700 
I       0.66388762      14.37848135       3.61832841       53       0.07170000      -0.03865700       0.08517300 
I       1.54503609      14.46623447      23.62773281       53      -0.00454500      -0.30062300       0.00508300 
I       5.69646496       3.54699785       3.97164747       53       0.09729600       0.64847900       1.22330000 
I       7.12554121       3.13009031      24.12629807       53      -0.21284600      -0.07568800       0.21436000 
I       6.24848727      15.36885759       4.21885761       53      -0.03319000      -0.39532800      -0.35351400 
I       6.53092680      14.13174847      23.39390611       53      -0.19890600      -0.09223100       0.66416000 
I      11.01748641       3.61315222       4.44987726       53       0.06696400       0.68039300       0.97315900 
I      11.31934322       2.91503917      24.43179436       53       0.18152000      -0.05072700      -0.36948700 
I      11.62475475      14.55223797       4.07280623       53      -0.58383300      -0.10485600      -0.21011900 
I      11.33772123      14.01795799      23.92123910       53       0.06364800       0.01011500       0.23951500 
I      15.91106834       3.38051816       4.11364064       53      -0.32368400       0.37704700      -0.25451800 
I      15.98175617       2.98279786      24.29252752       53       0.03143400      -0.07965700       0.26483700 
I      15.55014643      14.91380363       3.45510276       53       0.47012100      -0.17985400       0.42428000 
I      16.09437822      14.52090939      23.69052013       53      -0.15492400       0.00742000       0.03119300 
I       3.73177785       7.58467962      15.68823071       53       0.23145600       0.28499800       0.18753000 
I       4.31964303       8.16050334      35.58488492       53       0.22538600      -0.58316300       0.07105600 
I       4.58596673      19.39851475      16.10803409       53      -0.15313000      -0.11799300       0.44657300 
I       4.19796516      20.02974391      36.16927710       53      -0.15686100      -1.14540100      -1.41833400 
I       9.01635910       7.67173754      15.51578377       53      -0.43961400      -0.04969400       0.10879700 
I       9.32934725       8.20499943      36.05473693       53      -0.37826800       0.49289100       0.11182900 
I       9.01296078      19.11085766      16.10554286       53      -0.09861800       0.26334300      -0.48528400 
I       9.44655422      19.81664015      36.29117191       53      -0.18150700      -0.43188100      -0.36918400 
I      13.56743043       8.32815347      16.27425850       53      -0.32394800      -0.13063400      -0.34014500 
I      13.87766702       8.26600788      35.84747026       53       0.15389800      -0.09382800      -0.01139000 
I      13.70181065      19.39028934      16.28741591       53      -0.39288900      -0.35820700      -0.54928000 
I      14.18390089      18.85067274      36.35193618       53      -0.05325600      -0.13943800      -0.17517100 
I      18.65585415       8.66757955      16.27185908       53       0.12287100      -0.25221200      -0.02366100 
I      19.00056338       7.86628470      36.08348347       53       0.03281800       0.31488300       0.19238600 
I      18.57080214      19.55370064      16.30057333       53      -0.25504400       0.56789200       0.02186900 
I      18.54586257      19.17209616      35.97215294       53       0.06389400      -0.25808300      -0.35012800 
I       1.43080972       8.56176828       6.19363073       53       0.06991900      -0.36928400      -0.23443900 
I       2.23839168       8.16020165      26.00494939       53       0.00343700       0.12752700       0.08231800 
I       1.10619583      20.02040154       5.35862100       53       0.50168800       0.41671700       0.21672200 
I       1.53576132      18.97268055      25.55627435       53       0.02515400      -0.00624900      -0.21394700 
I       6.32168853       8.62021083       6.31747089       53       0.01940700       0.33278300      -0.51549700 
I       7.03986361       7.79491579      25.47367018       53       0.10321900       0.04023600       0.37487800 
I       5.62692538      20.84198041       5.45883129       53       0.27389800      -0.29325000       0.47735600 
I       6.49476711      19.27925042      25.42841230       53       0.14682000       0.12983400       0.54872200 
I      11.16875334       8.72071171       6.56429155       53      -0.20329300      -0.12477100       0.50852400 
I      12.05735735       8.40246262      25.83629328       53       0.22248800      -0.00076600       0.06881600 
I      11.07570900      20.30579947       6.48435317       53       0.64762100      -0.66120600      -0.14828500 
I      11.52925449      19.36091924      25.91688751       53       0.04251800      -0.13011300      -0.92102600 
I      15.93722477       8.91855025       6.85208485       53       0.13015200      -0.17976200       0.03530400 
I      16.61260393       8.11184814      26.19861972       53      -0.31795400       0.14615800       0.08110500 
I      16.01767774      19.88597389       6.31430060       53      -0.06275700      -0.30010400       0.37263400 
I      16.82790834      20.01699211      25.85282481       53      -0.10197600       0.21111900      -0.26120100 
I       4.35965409       2.00285271      14.73123739       53      -1.03026800       0.88240300      -0.07942100 
I       4.22099468       2.06191579      33.91478877       53       0.07607300      -0.13362300       0.26904600 
I       3.29980487      13.66055650      14.20118917       53       0.07397000       0.38227400      -0.03292100 
I       4.11743349      12.94032809      33.88747502       53       0.42203600       0.40113300      -0.49737900 
I       8.53757639       2.29968164      14.53328685       53       0.03586600       0.04333600      -0.18376300 
I       9.17154097       2.16210388      34.43617468       53      -0.17245000      -0.16032900      -0.29343800 
I       8.44477320      13.49025067      13.66806450       53       0.16175500       0.38884100      -0.00783900 
I       9.37394727      13.28033031      33.91609241       53       0.07458300      -0.13072500      -0.04974700 
I      13.68313499       1.92159858      14.03129299       53      -0.37270300       0.39885300       0.34737900 
I      14.09614978       2.30202253      34.19751889       53       0.06737200      -0.15000600      -0.05770000 
I      13.39601772      13.46819181      14.55977927       53      -0.20067200       0.41220300      -0.53936400 
I      14.14113524      13.22326001      33.36470072       53       0.32104700      -0.50089000       0.40425700 
I      17.87929000       2.14024985      14.81204452       53       0.08954300       0.03595300      -0.48067100 
I      18.52499031       1.96209094      34.36915459       53       0.51165600      -0.55117100      -0.27372500 
I      18.33884916      13.20351783      14.53140102       53       0.46652400       0.52927900      -0.54799100 
I      19.38072297      13.07138869      33.70577248       53      -0.37320600      -0.29354400       0.14215300 
H       2.61385537       0.26800370       5.08865882        1       0.97502300       1.30254100       0.81861500 
H       3.06953087       1.04079821      27.21706546        1       1.66493600      -0.59839400       1.21404300 
H       3.02086154      10.98602061       6.07542585        1       0.76342400       2.32212400       0.63319500 
H       5.54282082      10.67367923      26.70878954        1       0.45449500       0.19496400       1.63639700 
H       7.21566448       1.62303819       6.30477862        1       1.21319500      -1.26440100       0.73510100 
H      10.27772570       0.72065421      26.60019846        1      -0.53545500       0.69460600       0.71725900 
H       8.94710003      13.19957262       6.13337500        1      -1.28057400      -2.79195100       0.17499700 
H       9.65044275      10.07065174      26.32797511        1      -0.34578600      -0.28176800       0.42303000 
H      13.91244135       1.22192057       5.14863304        1       0.45452900       0.27050000       3.34810900 
H      13.68052974       0.07186836      27.77977011        1      -0.18314300       0.66732200      -1.75238700 
H      13.39102416      13.47865720       7.17388766        1       0.00983800      -0.96171700      -0.01263200 
H      16.17849893      11.75287208      26.27628381        1       0.37158200      -0.06394000      -1.28738000 
H      18.87530758       2.39114487       6.18914066        1      -0.22021700       0.63096700      -0.08811900 
H      18.87448322       1.84883019      26.41090418        1       0.03502300       0.31077400       0.93462100 
H      19.44285141      13.16806545       6.90224650        1      -0.82437900      -1.59624400      -0.25326300 
H      19.42499304      12.54360771      26.18122146        1       0.65951700       0.22725000      -0.85228600 
H       1.60311540       8.57069192      13.59234376        1      -0.04231200       1.69711700      -2.06691400 
H       2.02506493       8.19660855      32.99915757        1      -0.79590600       1.91941400       0.79003800 
H       1.32299154      20.03790777      13.43516810        1      -1.04881900      -0.19554900       0.45326300 
H       1.59062191      19.81372009      33.36252530        1       0.64762100       0.77194800      -2.46120300 
H       5.33765187       9.70576444      14.16075735        1      -0.56524200       2.67750800      -0.60980100 
H       7.65937521      10.40133177      32.55818830        1       1.96882200       0.76942900       0.78148000 
H       5.33250695      20.16444601      12.34285012        1      -1.55505300      -0.21419000      -1.97588100 
H       5.24214354      21.13783364      33.19030842        1      -0.77018500       0.61801200      -0.10065500 
H      11.79809567      10.72180370      15.18347218        1      -1.93599400       1.80926900      -2.10809500 
H      10.29057739       9.26876965      32.85139189        1       1.48229200      -0.19542000       0.16793300 
H      12.25073407      20.36792791      13.42529197        1      -1.70257200       0.51277800       0.16351800 
H      11.28262958      20.83923592      32.59527224        1       0.80093000       0.48476500      -1.17646100 
H      15.42744644       8.98124373      14.43800252        1       0.21575300      -0.54842500       0.49683300 
H      17.84980487       9.55230899      31.98329993        1      -0.93853900       0.42921500       1.13051200 
H      15.28419505      19.47713436      14.06082656        1       1.70898900       1.17997300      -0.46398900 
H      16.57649368      20.41242702      31.72053195        1      -0.95437500      -0.43135200       1.69993900 
H       4.31023003       8.23586084       4.03947982        1       0.57497900      -0.77115400      -1.51743100 
H       3.87753561       7.43118986      23.77211530        1       1.34533500      -0.40445500      -1.33619700 
H       2.46989061      16.76453680       4.71731793        1       0.18032800       2.09514000      -2.16343900 
H       3.93873072      17.38731253      22.11186906        1      -0.41720700      -0.69941800      -0.73451500 
H       7.54989621       6.91533329       3.03044002        1       0.43774800       0.05939400      -0.03787900 
H      10.35976684       6.13942398      22.31518649        1      -0.03766900      -0.17949500      -0.32471600 
H       8.28452210      18.18631089       4.03827002        1       0.10293300       0.37615800       0.08832200 
H       8.82072524      18.65836455      23.81413024        1       0.26725300      -1.90827500      -0.61254700 
H      12.98776038       7.10945566       2.80252104        1       0.53322600       0.42885800       2.59728400 
H      14.56044622       5.65929626      22.37664192        1      -0.51237400       0.68399600       0.81447200 
H      14.22435389      19.11592387       3.79198010        1      -0.17776000      -0.32340100      -1.33696600 
H      14.76509554      18.42737820      23.92346294        1      -0.06180100      -1.10222100      -0.31857000 
H      17.41766036       8.13431160       3.09927733        1      -0.57310600       4.73926900      -3.07916000 
H      19.56947542       5.35433273      23.38873093        1       0.59481300       0.12115500      -1.57199200 
H      17.38941529      19.19896998       3.82681295        1       1.47490300      -1.99554700       0.40954100 
H      17.52096930      18.36260617      22.59487849        1       0.43039000       0.11747900      -0.54390500 
H       0.71385554       5.11869487      14.93468599        1      -1.51917900      -0.26526100      -1.22093400 
H       0.68267831       4.56947960      36.10803457        1       1.09238600       0.51787500      -0.17532900 
H       0.08389166      16.73108528      16.19974049        1       0.42510800      -0.89716600      -0.75410800 
H       1.11854806      14.39552646      36.06466049        1       0.23821700       0.85900900      -0.61341000 
H       6.35696131       4.40497857      18.00822664        1       0.26517100       1.04884500      -0.61093300 
H       6.80737082       3.96183894      36.32240564        1       0.28791000      -1.07964600       0.97094300 
H       5.59931599      15.83899717      15.23802199        1      -2.50559500       0.90554400       0.22926100 
H       7.10846785      16.96774728      35.25731464        1       1.07409600      -0.47125800       0.74395900 
H      12.17343121       5.60201205      16.64341086        1      -0.18467300      -0.34588600      -0.12830200 
H      11.44071839       5.75695982      36.48964006        1      -0.83756500       0.46730000      -0.32761100 
H      12.53972809      16.03310441      16.09524597        1       1.48717800       0.75105300      -0.68421100 
H      11.95381230      16.83738894      36.65496141        1      -1.35537300      -0.54266200      -0.03885100 
H      17.26446321       5.29507995      17.16129048        1      -1.04856300      -0.38066800      -1.03621700 
H      17.65276143       5.16853363      35.03074874        1       0.26788800       0.50416300      -2.30350600 
H      15.01837584      16.90991316      16.87496225        1       2.12302400      -0.71105000       0.09810400 
H      16.04295835      14.68132496      34.82506923        1      -1.20332200       1.09984600       1.18510000 
H       2.15827673       1.86877014       5.76704179        1      -2.97664000       1.33975200      -0.02628600 
H       4.69032403       1.34713904      26.53543854        1      -0.11288300      -1.23650100       0.21515300 
H       4.78494242      11.69016145       6.05314602        1      -0.47583500      -0.11529400       0.01427300 
H       5.92088269      10.44279580      25.09492522        1       1.08385300       0.26243800      -2.03006100 