768
Lattice="20.3027861549 0.136595784231 0.000504490872458 0.150460549674 22.5015197184 0.161481260668 -0.0294289767188 0.291620383712 39.2952122386" Properties=species:S:1:pos:R:3:Z:I:1:forces:R:3 energy=-99805.383963 stress="-3272.362471 -1534.006788 1711.675709 -1534.006788 -2175.947627 1480.203125 1711.675709 1480.203125 -1724.675111" pbc="T T T"
I       3.74802503       3.60379818      20.25123664       53       0.25404800       0.01136100       0.14333300 
I       3.29855038       4.16993558      38.95879902       53      -0.29959200      -0.03178000       0.23040100 
I       4.05634396      15.32553366      18.96440372       53      -0.27828600       0.01896900       0.18129800 
I       4.00525578      15.34870325      39.04674792       53      -0.05093800      -0.01840500       0.44000200 
I       8.66607537       3.80056812      20.32008372       53       0.08954400      -0.37735200      -0.17032100 
I       8.50112124       4.70998432      39.30827865       53       0.15655300       0.09574300      -0.10862200 
I       8.81002377      15.58148521      19.66680914       53      -0.24380800      -0.45896200       0.29276800 
I       8.20810040      15.72428798      39.66082427       53       0.32295200       0.19382900      -0.07021700 
I      13.86766395       3.79345695      19.63408093       53      -0.07507000       0.07531700       0.39480000 
I      14.17531194       4.58953430      38.39851002       53      -0.40454900       0.09172800       0.10512500 
I      14.58640624      15.16854556      19.71439157       53      -0.49474700      -0.04388100       0.33795800 
I      14.01176443      15.40668683      39.05081364       53      -0.15718200       0.66586400      -0.39076100 
I      19.19887998       4.00369402      20.01922632       53      -0.14247300      -0.44780900      -0.18341800 
I      18.98595298       4.22759447      39.39345541       53       0.32249500      -0.03234100      -0.02059600 
I      18.97908841      15.24029423      19.78244954       53       0.66842100      -0.18134600       0.75756200 
I      19.52044411      15.84753684      39.65086700       53      -0.18632900       0.50300800      -0.17783900 
I       1.73410261       7.87728591       0.42038372       53      -0.26803800      -0.16381200       0.02452500 
I       1.43546970       7.68185991      19.72722475       53       0.09464500       0.51078700       0.08013300 
I       1.64002688      19.34440351       0.94970047       53       0.11789900       0.07869000      -0.21259600 
I       1.13984216      18.61342398      18.97583748       53       0.52703200      -0.19369200       0.29022200 
I       6.23231481       8.25982767       0.67700004       53      -0.01288600      -0.36972400      -0.00114300 
I       6.13859870       7.71401273      19.78199643       53      -0.13664200       0.25019500      -0.67108800 
I       6.67554447      19.18259140       0.29275061       53       0.17731300      -0.27692800       0.25972300 
I       6.28810267      19.09311465      19.19315180       53      -0.10351000      -0.36393800       0.12682500 
I      11.70723368       7.96802131      -0.19764021       53      -0.02861900       0.07530300      -0.11785500 
I      11.04155643       7.30536896      19.22233110       53      -0.34063500      -0.01726400       0.38761600 
I      11.16565811      18.99556194       0.06290929       53       0.43453800      -0.15125200       0.29042300 
I      11.45988520      18.88124595      19.57200184       53       0.17075800       0.25543700       0.22332200 
I      16.65532845       7.50216869      -0.49027471       53       0.17238000       0.27753200       0.38610200 
I      16.30308388       8.05064685      19.76843168       53       0.50190300      -0.29802900       0.13081100 
I      16.40522427      19.07733364       0.23612228       53      -0.08598000       0.01809400       0.25766700 
I      16.81820811      19.16870609      19.62439389       53       0.01584400      -0.08475000      -0.17787300 
I       4.15467139       9.10055708       9.95618182       53      -0.06288500       0.22219500      -0.33670200 
I       3.97793108       9.38643901      28.82249855       53       0.00881000      -0.32169000       0.26275600 
I       3.84351560      20.70695629       9.37710028       53      -0.04729500      -0.00870300       0.17828800 
I       3.92219049      20.62115380      30.08344420       53      -0.49765900       0.23308600       0.05110000 
I       9.65468020       9.61414626      10.10379010       53      -0.43264000      -0.02348600       0.49057400 
I       8.89205748       9.08959699      29.12462796       53      -0.45359400      -0.40985500      -0.55896500 
I       9.28832016      20.77117459       9.26385903       53      -0.29435000      -0.03499800       0.01084500 
I       9.41007611      20.57235073      29.65603357       53      -0.23456600       0.00128500      -0.10207700 
I      14.30493219       9.29948575       9.74798533       53       0.21886800      -0.23131600       0.20235000 
I      14.06582715       9.30800147      29.19917856       53      -0.07486100      -0.26635500       0.01876300 
I      14.06677962      20.26449211      10.18783869       53       0.34499300       1.06211100       0.74354900 
I      13.75326063      20.45990372      29.25634118       53       0.46290800       0.21733800       0.03866800 
I      19.05161077       9.76298442      10.62062302       53       0.08618700      -0.22455200      -0.19098100 
I      18.91281927       9.16731325      29.56074336       53       0.17289000       0.32976600      -0.03921700 
I      19.11249799      21.06038760       9.80855916       53       0.12766900      -0.54552100      -0.24844300 
I      18.88485137      20.54473731      29.86089797       53       0.09955900      -0.18462500      -0.50855700 
I       1.09881092       2.06723098       9.02571160       53       0.11634600       0.51969600       0.59970000 
I       1.18392397       1.61699188      29.79099259       53       0.01730400      -0.00583900       0.46535600 
I       1.69065166      13.19608591       9.82601907       53      -0.40404500      -0.40363400      -0.14180200 
I       1.87526758      13.04250697      28.75673184       53      -0.48248900       0.11724700       0.51554600 
I       7.00186067       2.05207879       9.15000130       53      -0.13627900       0.06926900       0.39152400 
I       6.34332747       1.74232550      29.07953100       53       0.50885800       0.31648600       0.18977300 
I       6.31603975      13.44982941       9.55514549       53      -0.03276600       0.08600100       0.22754800 
I       6.52467909      13.06087927      29.82997504       53       0.21469900      -0.35949300      -0.40851800 
I      11.50050031       2.03098983       9.70500599       53       0.13838300       0.06387000       0.47989300 
I      11.96633136       1.98614563      29.67565940       53      -0.37772500       0.01554100      -0.17920400 
I      11.41647638      13.79790859      10.04506264       53      -0.10734100      -0.36674100      -0.06533700 
I      11.56728832      13.17975417      29.38332697       53      -0.33843800      -0.26484100      -0.19083800 
I      16.88148421       1.83712663       9.99130610       53      -0.42398000       0.25023600       0.01622500 
I      16.64580169       2.04049091      29.49591886       53      -0.01180200      -0.09241600       0.28857900 
I      16.42688245      13.06334316      10.20057323       53      -0.20471300       0.48111500       0.31488200 
I      16.70701873      12.84422767      29.07212597       53      -0.16921300       0.11858900       0.09525700 
I       0.98431615       0.89006061      17.37295901       53       0.07826000      -0.01729100       0.17144100 
I       1.46891302       0.46510360      37.33479256       53      -0.06812700       0.10802600       0.11094500 
I       1.15130879      11.93188008      17.26533806       53      -0.01111800      -0.25255100       0.41220600 
I       1.17218095      12.47839781      37.82156666       53       0.10931700      -0.51909300      -0.07441200 
I       6.04546516       0.51722130      17.88773697       53       0.24372500       0.22744400       0.01083500 
I       6.47878275       0.99276817      37.29193036       53      -0.25326600       0.04053800       0.33246500 
I       6.32527471      12.18584962      17.58180076       53       0.07738000      -0.33638700       0.15774100 
I       6.36127850      12.37611049      37.36329681       53       0.24164200      -0.33234200       0.22079700 
I      11.37220448       0.65334034      18.01024811       53      -0.02777100      -0.05685100      -0.00153900 
I      11.46932873       0.96939514      37.03538596       53      -0.28199300       0.11599500       0.25923900 
I      11.31702181      11.72186803      17.57908309       53      -0.13739700      -0.19407200      -0.03182100 
I      10.85531608      12.21747328      37.65739546       53       0.24088500       0.63716000      -0.62478900 
I      16.56627913       0.48148979      17.93139855       53      -0.28438600       0.25227400      -0.07024100 
I      15.96239431       1.02541828      37.51625207       53       0.43060400      -0.00560100      -0.09068300 
I      16.29438424      11.83598777      18.01538961       53       0.06373500      -0.29436300      -0.17192400 
I      16.80657707      12.29707907      37.34691164       53       0.05311300      -0.09919200       0.31710600 
I       3.75980094      11.26611960       2.34953421       53      -0.05542300      -0.04738100       0.86903000 
I       3.76200077      10.84296478      21.79765015       53       0.11939200       0.42961500      -0.37000100 
I       4.40186781      22.53882019       2.28515357       53      -0.40026600      -0.27342500       0.02138400 
I       3.95806482      21.43580073      22.08387320       53      -0.17734500       0.65872500      -0.35407100 
I       9.31052187      11.51605835       2.48004425       53      -0.38675400      -0.29813700      -0.22211200 
I       8.86140375      11.49432826      21.79096333       53      -0.05630200      -0.05485600      -0.45795700 
I       9.11871670      23.20405665       2.32234205       53       0.07131100      -0.07602000      -0.20924600 
I       9.20279098      22.13772529      22.40957189       53      -0.10044400       0.07970500      -0.44028600 
I      13.73415779      11.91072845       1.88795280       53       0.21450200      -0.36842300       0.48279700 
I      13.79900388      10.89619217      21.85216599       53      -0.17157300       0.41869000      -0.06132500 
I      13.59090499      22.81301252       2.14326936       53       0.15597800       0.41289700       0.13982300 
I      14.27102342      22.18217905      22.26527825       53      -0.11246500       0.26655100      -0.32403700 
I      18.88326803      11.64556250       2.02336391       53       0.03608600      -0.32213800       0.24969300 
I      19.22613790      10.79344351      21.53265887       53       0.23803800       0.43593800      -0.03240800 
I      18.45468505      22.64291895       2.54763883       53       0.08718500       0.27731700      -0.17313300 
I      19.33258445      22.55050568      22.02596463       53      -0.66117500      -0.80341300       0.04212500 
I       1.46005412       6.16050347      11.60390963       53       0.18271600      -0.35023600      -0.09654500 
I       1.52685447       5.80620292      31.54868502       53      -0.18765600      -0.09880400       0.02946800 
I       0.82684821      17.47374211      11.68983440       53       0.52406400       0.06582500       0.23214400 
I       1.31836206      16.82064425      31.47859881       53      -0.02201900      -0.00915600      -0.27008100 
I       6.51804365       6.07700458      11.76354349       53      -0.02788400      -0.50767300       0.13361500 
I       6.10360388       5.68339895      31.64815912       53       0.27451400       0.01766100      -0.23818500 
I       6.10709114      17.72885626      11.73328534       53       0.22047600      -0.47513300      -0.57409500 
I       6.45764654      17.16112627      31.61062952       53       0.07429700       0.07102400      -0.11779000 
I      11.82895880       6.49615327      12.11054074       53      -0.03001400      -0.67041200      -0.08622700 
I      12.20699816       6.22089544      31.98566351       53      -0.17917400      -0.31378400      -0.45307800 
I      11.29077081      17.53926427      11.99982914       53      -0.01219000      -0.03151900       0.12969100 
I      11.84980218      16.94037915      31.29370856       53      -0.28637500       0.42771600      -0.04042500 
I      16.34225231       6.22923958      11.84309071       53       0.29317900      -0.48424500      -0.18852300 
I      16.82469867       6.13642353      31.96517152       53       0.00020400      -0.41190300      -0.24786900 
I      16.36731040      17.04262126      12.64624018       53       0.21536000       0.72421600      -0.05995500 
I      17.04682056      16.79239379      31.14968103       53      -0.30601800       0.12470600      -0.16091300 
I       4.39013506       5.27148986       7.63748526       53      -0.12890400       0.02778400       0.36907200 
I       3.53870139       5.23438152      27.33122045       53       0.11123100      -0.30994900       0.33391700 
I       3.67287439      16.61958460       7.30491584       53       0.21264100       0.29680800       0.22420400 
I       4.26704648      16.44309089      27.75917769       53      -0.08199500       0.44326800      -0.21547800 
I       9.40064901       5.59640356       7.75465866       53       0.06984100      -0.56158900       0.09192700 
I       9.11031811       4.91796814      27.16934977       53       0.02443500       0.12138000       0.07993900 
I       9.03300668      16.56526501       7.81948831       53      -0.13900500       0.26633600      -0.00934500 
I       8.67529799      16.92961120      27.59009002       53      -0.04690900      -0.36867900      -0.13784400 
I      14.19441889       4.99907301       8.07639849       53      -0.07587500       0.11861900       0.00817300 
I      14.31143509       4.98250906      27.54542871       53      -0.23004000      -0.16842800      -0.08246500 
I      14.17112909      16.34429904       8.35578266       53       0.16040300       0.39696300      -0.21964000 
I      14.20719453      16.29577750      27.12115599       53      -0.03605700       0.22193800       0.35628900 
I      19.51083926       6.38945396       7.95282494       53       0.02067500      -0.87906200      -0.66792200 
I      19.04127539       4.81005024      27.88258068       53       0.24388200       0.42444500       0.04714700 
I      18.59975238      16.51237464       8.19531860       53       0.42098600      -0.13369300      -0.29527000 
I      19.17762766      16.73400642      27.11580387       53       0.08559300      -0.06583600       0.25448400 
I       1.71213003       3.30799083       3.66474705       53      -0.16743200       0.36065100       0.36090300 
I       0.90512547       2.83758751      23.51510661       53       0.22029500       0.18797400       0.34336000 
I       1.37545378      15.15385162       4.36420772       53       0.02360300       0.10619700       0.52697900 
I       1.57673022      14.79114220      23.26672140       53       0.10125800      -0.82801500       0.10781600 
I       6.76473249       3.75219864       4.32853580       53      -0.44540400      -0.29069400      -0.29727000 
I       6.70371684       3.27147021      24.09848198       53      -0.64209600      -0.38003300      -0.11107600 
I       6.00643237      14.62964861       4.17071030       53       0.09769600      -0.27752900       0.05458300 
I       6.22383608      14.27600154      23.99125763       53       0.01752900       0.12577300       0.08704800 
I      11.51209846       4.08983044       4.01336463       53       0.55946400       0.13070400      -0.67795600 
I      11.31128643       3.48436228      24.20284994       53       0.23599700       0.14093500      -0.24022600 
I      11.01588597      14.86832417       4.21038424       53       0.10851100       0.36245900      -0.17994500 
I      11.38817660      14.58594799      23.64121186       53      -0.00050600       0.25947800      -0.13594300 
I      16.72304428       4.32013309       3.77332047       53      -0.20331200       0.08120400       0.00549100 
I      16.77230149       3.24734610      24.22790906       53       0.02953300       0.07707400       0.17911300 
I      16.40260010      15.36808351       4.10671804       53       0.18528200      -0.60654000      -0.25216800 
I      16.74833869      14.68826100      23.99050038       53       0.28638000       0.13029300       0.66152400 
I       3.29056175       8.36774967      15.56796156       53       0.35580900      -0.05072000      -0.28751000 
I       3.53838287       8.88827534      35.68810867       53       0.56919900      -0.21901900       0.14712600 
I       3.49126898      19.75565707      15.57946930       53       0.21840400       0.16166600      -0.49214800 
I       3.87592734      19.29314272      35.62930311       53      -0.12930500       0.45871300       0.20862400 
I       8.21119413       8.83404103      15.53992379       53       0.36149900      -0.31598500       0.04897400 
I       9.17959467       8.69570881      35.66289851       53      -0.00196200      -0.10723700      -0.30038500 
I       8.84966792      19.81432391      15.55094142       53       0.60507000       0.00755400       0.56069600 
I       9.00291087      20.16359291      35.69231207       53       0.22705800      -0.11426300       0.25453100 
I      14.36992931       7.86747762      16.25826331       53      -0.36507900       0.02195400      -0.78301500 
I      13.70775884       8.75574528      35.29469312       53       0.02198700       0.23164600      -0.05226600 
I      14.61681132      19.86861062      15.46425941       53      -0.50994800      -0.23144200       0.33588400 
I      14.25599144      20.29797962      35.71994810       53      -0.39320800       0.22457200      -0.57329300 
I      18.62703496       8.44971351      15.25342846       53       0.15494000       0.19607200       0.00035100 
I      19.17294340       8.63087403      35.03479812       53       0.18310900       0.15460400       0.37694100 
I      19.24612334      19.35755315      15.32038806       53       0.13010100       0.59537400       0.62816400 
I      19.20058559      20.03258146      36.03715059       53       0.44801200       0.14806400      -0.21606900 
I       1.26416679       9.93979152       5.89864805       53      -0.73801000      -0.34262900       0.00302900 
I       1.13121649       8.22679739      25.13229885       53       0.24870700      -0.00179400       0.57364500 
I       0.61671492      20.10279303       5.50804573       53       0.77214000       0.20220100       0.65894100 
I       1.42843662      19.90558128      25.42793256       53      -0.02189400       0.27490200       0.42969600 
I       6.65677761       8.44760102       5.71200492       53       0.17382200       0.07950900      -0.04257900 
I       6.50274658       8.66696002      25.46129574       53      -0.03507800       0.23156600      -1.07602000 
I       6.39911429      20.73306961       5.70661067       53      -0.04594300      -0.10575400      -0.38847800 
I       6.16222655      20.84718215      25.62838497       53       0.19415900      -0.53263500       0.25855800 
I      11.02140454       9.40071169       6.37638960       53       0.37081900      -0.06281000      -0.19623800 
I      10.89360395       8.40291197      25.14152559       53       0.49622600      -0.22787500       0.52879900 
I      12.15987707      20.61458515       5.78133388       53      -0.35952800      -0.01657400      -0.20188900 
I      11.61851007      19.20029379      24.78721271       53      -0.16152100       0.11975000       0.24723300 
I      16.25558262       9.20190838       5.70291278       53      -0.39353700      -0.62656200       0.01730100 
I      16.70703311       8.55478221      25.63817374       53      -0.05656000      -0.06871300      -0.33447800 
I      16.41931611      20.35837571       5.93434154       53      -0.19757800       0.02245100       0.51851200 
I      16.90302011      19.83471829      25.43635478       53      -0.12925400       0.42571800      -0.41944700 
I       3.91607598       2.43191829      13.92370457       53      -0.00507000       0.43779700      -0.39635400 
I       4.27705512       1.98226794      33.63975756       53      -0.53690200       1.07754400       0.16791400 
I       4.39787093      14.09570924      13.37191896       53      -0.09529900       0.30291900       0.74848600 
I       4.24432281      14.15704649      33.88343076       53      -0.02618400      -0.46134400       0.08899800 
I       8.55857463       2.71492225      14.34767520       53       0.56635200      -0.19278800      -0.76254900 
I       8.78425569       2.25593420      32.95102169       53      -0.29294700       0.25933200       0.55158500 
I       8.88199643      13.93813136      14.05517016       53      -0.05565300       0.02667300      -0.07019000 
I       9.26536942      13.72921049      33.45140266       53      -0.14669700       0.10486400       0.11566000 
I      14.10545999       2.08557657      14.38457393       53      -0.00107300       0.17414800      -0.22209100 
I      13.58777016       1.83752837      33.51755364       53       0.28955300      -0.32480000       0.92256500 
I      13.87734792      13.74347597      14.64117176       53       0.22875500       0.49179700       0.14566900 
I      13.98936852      13.91229547      33.69427340       53      -0.12619900      -0.03503900      -0.35300600 
I      19.49493598       2.75194942      13.48166679       53      -0.30938900       0.04199900       0.13898800 
I      19.70927679       2.38666001      34.49163612       53      -0.10918200      -0.55422200      -0.82971800 
I      19.19529512      13.62912916      13.88916595       53       0.00280800       0.15380600       0.34598200 
I      18.79063487      14.00162015      33.33801037       53       0.27629300      -0.40496500       0.14710700 
H       2.15205326       0.79490705       7.01439999        1       0.48466200      -1.76192900      -0.87003800 
H       4.38958947       1.30611557      26.94252924        1      -1.32259500      -1.44715500       0.86685000 
H       3.53930452      10.44438720       6.23583700        1       1.60203300       3.40714300       0.75437200 
H       2.79365263      12.02630720      24.84969355        1       0.45910200      -0.64235500       1.33136500 
H      10.56721069       1.92051353       5.24391137        1      -0.89697200      -0.71469800      -0.13182300 
H      10.73134798       1.31872373      26.09871842        1      -0.29166500      -0.54291800      -0.04115500 
H      10.07087798      12.50180783       6.29486963        1       1.90198600      -0.80437200       0.70145700 
H       9.77504494      11.33036770      24.84668612        1       0.12138400       0.40672200       0.30315800 
H      14.53731754       2.52557892       6.62182903        1       1.12103200       0.41505900      -0.37511200 
H      13.89863620       1.38066103      25.71404875        1      -1.73625800       2.63139600      -0.97837800 
H      13.82087577      11.24162457       5.34329812        1      -0.52564400       0.13055700       0.00587500 
H      14.65698770      11.56237596      25.09141865        1      -0.25676200       0.18272900       1.27534100 
H      20.48535842       0.82724893       5.55250360        1      -0.37583900       0.14655200       0.97803200 
H      20.12662740      -0.37430346      27.29566771        1      -1.05096200       0.67993100      -0.93485000 
H      19.74702216      12.99764838       7.14549364        1      -2.63660800      -1.30246000      -0.48326100 
H      19.80301654      10.84393575      25.15443480        1       0.48706000       0.12736000      -0.68811800 
H       2.16328255      11.44763151      14.58963766        1      -0.03984200      -0.42692600       2.39969800 
H       1.03622631      11.38536645      31.80034172        1      -0.37395100       0.33803600      -0.06372600 
H       1.05290122      22.72605412      12.22892759        1       0.05609800      -0.82925500       0.33493900 
H       0.35059752      21.05430391      33.75542982        1       1.07784500       0.62044200      -1.89144900 
H       4.87751742       9.33813324      12.74529095        1       2.99034000       1.69167200       0.99926600 
H       7.52636884      10.45138226      32.30428392        1      -2.38516500      -0.50398700      -0.04951600 
H       6.13790618      20.87422430      14.05125959        1       0.37862300       0.11872300      -2.01726500 
H       7.49031983      20.78202063      33.25473855        1       0.28623600      -0.62926600      -0.05577500 
H      12.78054572      10.58136315      12.02427588        1      -1.16493500       1.94090500       1.32147600 
H      10.04092910       9.11915030      31.83493171        1      -1.51682700      -2.13052700       0.75787000 
H      12.77952235      21.42522594      13.22288660        1      -2.21644300       0.83716100      -0.97748500 
H      12.47428380      21.15948769      33.74102152        1      -0.66322900       1.19433800       1.58161700 
H      14.78939036       9.56384205      13.26784383        1       1.52395100       2.43459000      -2.12054500 
H      17.73346038      11.42271727      32.16494272        1      -1.64957800      -1.32811200       0.74256000 
H      17.53915536      20.40553687      13.29343415        1       0.79784400      -0.15324300       0.62754200 
H      17.86241174      21.35190215      32.58803178        1       1.74524200      -0.78740500       0.00907500 
H       3.32368553       7.35212940       5.28037342        1       0.33734500      -0.02744500      -0.28708000 
H       4.51466005       7.23726782      23.84478575        1      -0.18885100      -0.79862800      -1.03440900 
H       5.35878630      17.90110239       3.93004144        1       0.84003200      -0.10756000       0.47394400 
H       4.80638318      16.70751089      22.57413661        1       0.19768000      -0.08007000      -0.87410900 
H      10.91863430       7.18806712       3.16526307        1       1.02876100       0.44048500      -0.66474300 
H       9.78123960       7.52671099      22.68823169        1      -0.77158300       0.32746600      -0.66469300 
H       9.69227864      18.12610943       4.74538808        1      -0.04749100      -0.36178400       1.40760200 
H       7.60417243      16.97943455      22.04163981        1      -0.24672200      -0.02254100       0.39513500 
H      12.93384621       8.58430777       2.30316420        1      -2.18541200       1.00724800      -3.86986700 
H      13.06514741       7.60176916      23.25016568        1       1.00487800      -1.00501000      -1.08047800 
H      13.25546377      19.35657294       3.22721270        1      -2.01790200       0.28019400      -0.64266100 
H      15.52033598      18.41728594      22.12244569        1      -2.16787400       0.23331900       1.11241900 
H      18.80302829       8.43333143       2.62028244        1      -0.93768600       1.67762000      -0.90880600 
H      20.28649963       6.83204658      22.32857388        1       2.00311300      -1.00534300       0.47222100 
H      17.83759408      17.90902937       2.96593986        1       1.22336400       0.44354900       1.29887200 
H      20.48518581      19.30501623      21.73736811        1      -0.49246800      -0.32090800      -0.53879100 
H      -0.00076033       4.19028988      17.06647926        1       0.48045800       1.29308000       0.16307500 
H       0.47322785       4.89060233      34.84141681        1      -0.88780800      -0.06871500      -0.38597400 
H       1.07008987      17.12130232      15.63210588        1       1.37290300      -0.48643200       0.16017500 
H       1.82968667      15.17575330      34.88610483        1      -0.79121600       1.45721400       1.14701000 
H       5.32104504       3.56463387      16.87246502        1      -1.41232400       0.57308300       0.13440300 
H       5.56042442       5.06603878      35.21052021        1       0.02877200       0.51597200       0.77960600 
H       5.17866867      16.49078017      15.27526644        1       1.54782500       1.43466900       0.01877500 
H       7.79035627      16.89196755      34.85034455        1      -0.30095000       1.23972300      -1.59023900 
H      10.20964790       5.71972640      16.81680560        1      -1.88969600       0.40463100       0.38592800 
H       9.90954878       5.47065381      35.69179114        1       0.48489000       0.04314400       0.10272100 
H      11.72999536      16.07511668      17.73778400        1       2.31296400      -0.94577600       1.97333900 
H       9.86023609      16.25979219      37.01774727        1      -4.90033800       0.00344000       2.00323700 
H      16.54661734       3.87779837      15.08650568        1       0.98316000       1.21998900       1.74494800 
H      17.96710438       4.77154762      36.91293544        1      -1.01459800       1.31799700      -0.87334100 
H      17.14030138      17.40628829      16.67533444        1       0.93287200      -0.51161400       0.74890000 
H      17.16958035      15.97538058      35.72171947        1      -1.12977900       0.74209100      -1.05288600 
H       3.48137643      -0.41517955       6.30607015        1       2.97642000      -4.55441400       1.56293500 
H       3.46351890      -0.41780167      26.71482404        1       0.70835600      -1.08813400      -0.13670800 
H       4.53020063      11.35708003       7.69000163        1       0.18760500      -0.11508500      -1.64833400 
H       2.51522504      11.11886992      26.49941672        1      -1.56800600      -0.46157100       1.20238100 