768
Lattice="19.564838482 -0.0698646828792 -0.0552628521051 -0.0920150448758 21.830687452 0.0751351484166 -0.112647696884 0.129103394902 38.8668580166" Properties=species:S:1:pos:R:3:Z:I:1:forces:R:3 energy=-99813.5273196 stress="-5645.810422 -733.533038 -599.241319 -733.533038 -3947.411636 643.442672 -599.241319 643.442672 -2799.961003" pbc="T T T"
I       3.57208503       4.34323077      19.71097384       53      -0.34421100      -0.29258600       0.28099200 
I       3.50074166       4.59942762      38.81996308       53       0.01907100      -0.05206500       0.42966100 
I       3.54158376      15.18654030      19.20496613       53      -0.43223100      -0.73076500       0.54849300 
I       3.68678569      15.51039380      38.62496286       53      -0.28277900       0.05945600      -0.05476400 
I       8.60132572       3.96242963      19.63950141       53      -0.07661600      -0.08897700       0.04776000 
I       7.99758829       4.90592400      38.64910115       53       0.27364600      -0.32381500       0.44894000 
I       7.83969143      14.33159636      19.01025405       53       0.61229100       0.13980700       0.44047700 
I       8.35863619      14.98608853      38.80324126       53      -0.17911000       0.00286500      -0.63703200 
I      13.28700570       4.01521833      19.91515436       53       0.01666100      -0.25909700       0.09583000 
I      13.00285477       3.92510317      39.32149670       53       0.30624000       0.37233400      -0.21943200 
I      12.91013940      14.21834738      19.09459050       53       0.13469500       0.17252700       0.25993800 
I      12.72855345      15.01771433      38.49918602       53       0.24751800       0.04619400      -0.04357800 
I      18.03509086       4.16253024      19.69469023       53       0.14759100      -0.23153700      -0.21167600 
I      17.48840112       4.51340238      38.72291268       53       0.32847500      -0.15017000      -0.23383100 
I      17.67954854      14.94565662      18.91560277       53       0.22973900      -0.23388700       0.34305700 
I      18.33253201      15.35702806      38.33070020       53       0.15263400      -0.03979500       0.13930900 
I       1.04162828       7.77928217      -0.07241788       53      -0.22425100       0.02048800      -0.12893500 
I       1.18293838       7.63110385      19.79749632       53       0.05787400      -0.04009000      -0.01117100 
I       0.55684950      19.39021279      -0.17409844       53       0.69368200      -0.59543700       0.03457900 
I       1.03089626      18.69709555      19.36629260       53      -0.32491400       0.45485600      -0.06100100 
I       5.99869120       8.01191700      -0.17982012       53      -0.22196500      -0.07046400      -0.37579100 
I       6.06311034       7.01730071      19.10304946       53       0.08606800       0.56831300       0.00786100 
I       6.20225243      19.03619818       0.07074610       53      -0.79586900      -0.87250200       0.56844700 
I       6.09933428      18.49983727      19.73800349       53      -0.02145700       0.49562000      -0.32738100 
I      10.57900389       7.87632857       0.11219849       53       0.35654100       0.30432300      -0.30894600 
I      11.37187179       7.41250659      19.09032450       53      -0.32259800       0.45894300      -0.09802500 
I      10.85325218      18.41683945      -0.12700541       53      -0.11016300       0.10384500       0.15142100 
I      10.81042414      18.43307804      19.49315295       53       0.29592200       0.32693300      -0.07030300 
I      15.68448824       7.90034780      -0.25881007       53       0.01683800      -0.04069200      -0.01261200 
I      15.53892715       7.75618636      19.22421914       53       0.35509100      -0.14506600       0.07058000 
I      15.99653322      18.93356817      -0.02321486       53       0.19656400       0.24264100       0.15719400 
I      15.69393867      18.19789902      19.20145549       53      -0.40576200       0.64432500      -0.32549200 
I       3.20538449       8.92733723       9.75735352       53       0.12657100      -0.19925400       0.01293200 
I       3.90237454       8.55897691      29.25082761       53      -0.15513100      -0.35070500      -0.24892200 
I       3.68834142      19.94230506       9.65645431       53      -0.67443300      -0.02466000      -0.27463700 
I       4.03662034      19.29675907      28.66953468       53      -0.17149800       0.14984100      -0.04119400 
I       8.25025949       9.23443489      10.14105901       53       0.18092200      -0.01454300       0.08697800 
I       8.77877173       8.44004728      28.99163236       53      -0.38478100       0.70773300       0.30477500 
I       8.45081231      20.15069155       9.56712353       53      -0.05172300      -0.35205000      -0.31534500 
I       8.42338448      19.23330339      29.20391066       53      -0.01279300      -0.15596800      -0.50087000 
I      13.43732602       8.18221266      10.26181150       53      -0.39420800       0.37951200       0.12453600 
I      13.92762238       8.52546323      29.02051687       53      -0.21676100       0.04583800      -0.01561000 
I      13.45446003      19.55848551      10.28508839       53       0.11933900      -0.42080700      -0.45133700 
I      13.37065883      19.83558914      29.05606850       53       0.17202000      -0.03937500      -0.30467300 
I      18.35179202       8.95608668       9.64334518       53      -0.51095300      -0.53108300       0.53374100 
I      18.34114303       8.92460495      28.87981705       53      -0.01594200      -0.76669800       0.15789000 
I      18.15686683      19.88603274      10.10596860       53      -0.16596000      -0.45382700      -0.49408000 
I      18.54565971      18.99456271      29.46837038       53       0.36354000       0.39577400      -0.11195900 
I       1.34773447       1.68608976      10.22959243       53      -0.66593600      -0.75441800      -0.28145900 
I       1.39879936       1.47929702      28.88969567       53      -0.66732000      -0.58427600      -0.39300100 
I       1.48350399      12.40484102      10.16500221       53       0.49279400      -0.13215900      -0.24512600 
I       1.06265211      12.17971370      28.64250604       53       0.24289600      -0.11173200      -0.05034100 
I       6.19472691       1.63537003       9.30268382       53      -0.09762200       0.04128200       0.21806200 
I       6.30221219       1.47561230      29.25632619       53      -0.38901700      -0.28057900      -0.25446400 
I       5.84834187      12.92369574       9.22197306       53      -0.69887400      -0.45251200      -0.21214900 
I       6.03600266      12.09016081      29.08117525       53      -0.41537500      -1.13166900      -0.42713000 
I      10.68948857       2.02159271       9.57872495       53       0.27538900      -0.14325500       0.21537400 
I      10.96834602       1.02422714      29.83752407       53      -0.16011500       0.49638400      -0.21390400 
I      11.42849128      12.40230383       9.46055967       53       0.03307600      -0.33466300      -0.09168200 
I      11.01385331      12.32918262      28.71005464       53       0.43980200      -0.38114400      -0.08476700 
I      15.45590431       1.33306161      10.33529588       53       0.00754200      -0.02127100       0.15181300 
I      16.04766314       1.57818028      28.94960570       53      -0.05385800      -0.30549400      -0.23487100 
I      16.54158620      13.13963676       8.38120175       53      -0.75716300      -0.22995100       0.49878500 
I      15.78661502      12.43969532      29.13649213       53       0.00517500      -0.23176200      -0.41092500 
I       1.67567388       1.04753404      17.79722259       53      -0.03377600       0.10412600      -0.53792600 
I       1.62672198       1.23043160      36.72194062       53      -0.21316100       0.02342200      -0.06375300 
I       1.16559127      11.20469258      17.34791940       53       0.10967200       0.02136700       0.33733600 
I       0.89445543      11.93291025      36.48727084       53       0.14753200      -0.05320700       0.17387900 
I       6.11137592       0.55853328      17.15868688       53      -0.24530100      -0.08026200       0.24203200 
I       6.20707068       1.31279613      37.30296943       53      -0.24998800      -0.22902500       0.18670800 
I       6.19459085      11.17584809      17.28008267       53      -0.37047600      -0.18002300       0.21522100 
I       5.72044604      11.73285166      36.45261963       53       0.04087900       0.29770300       0.02635500 
I      10.79621850       0.89037552      17.31490796       53       0.32463200       0.16697000       0.15663200 
I      10.95086284       0.70770507      36.76508480       53       0.17018700       0.18705400       0.16435100 
I      11.07279788      11.63429555      17.03360937       53      -0.54266000      -0.35367300       0.21783300 
I      10.85729207      11.89532867      36.69397554       53      -0.22853100       0.21700500      -0.59475500 
I      15.59267729       0.96634506      17.70343671       53       0.06987000      -0.00160000       0.08528000 
I      15.38551839       0.92506175      36.79882158       53      -0.20471500       0.32072700      -0.10244200 
I      15.97790951      11.80227013      17.29193421       53      -0.00093900      -0.37318400       0.13729600 
I      15.78765651      11.70898850      36.51556508       53      -0.41964600       0.12520500      -0.25398600 
I       3.63376388      11.02030933       1.58559074       53      -0.30133100       0.23354500       0.39371900 
I       3.14807868      10.69574850      21.58053543       53       0.11475000       0.13568200       0.14401000 
I       3.05696806      22.46948328       2.19602331       53       0.09082400       0.09781300      -0.08822900 
I       3.28935477      22.04438942      21.87305227       53       0.11036100       0.04081700      -0.10307500 
I       7.80008690      10.90500939       1.63065883       53       0.48293800       0.17394700       0.22628600 
I       7.72298483      10.35590452      21.28377861       53       0.12858500       0.25776600       0.17548300 
I       8.34893465      21.55696640       2.51198011       53      -0.09615700       0.79338300       0.23167400 
I       8.18941603      21.86097262      21.38766220       53       0.02265200      -0.09543900       0.13140400 
I      13.67682605      11.29957597       1.99881205       53      -0.14894700      -0.15375100      -0.51025000 
I      13.46506599      10.74589896      21.25657388       53      -0.34295600      -0.24858900       0.04245500 
I      13.44280158      21.79192732       2.36250919       53       0.03447700      -0.20306100      -0.00754900 
I      13.20363670      21.79411534      22.06206369       53       0.12345900      -0.19301600      -0.70859300 
I      18.13909351      11.42552089       1.07806732       53       0.47663700      -0.53267700       0.37078300 
I      18.20202696      10.90678122      21.61082460       53       0.00979500       0.10306900      -0.34919800 
I      18.38409913      22.00984226       1.79370210       53      -0.12304600       0.41854100      -0.02636300 
I      18.10711656      21.75370044      21.37770154       53       0.10081000       0.12840100       0.19767600 
I       1.22871880       5.31605787      11.80341967       53      -0.16233500       0.09037000       0.17745200 
I       1.06791457       5.33970193      30.91726418       53       0.16810700       0.19622800       0.10448900 
I       1.08578793      16.48265163      12.12813857       53       0.48571800       0.35280500      -0.27359100 
I       1.48566700      15.96528460      31.01893774       53      -0.14296700       0.26348300      -0.23765100 
I       6.01505986       5.80936564      11.97303502       53      -0.12409000      -0.17976600       0.26788300 
I       5.80450736       5.21884339      31.02013630       53       0.27917800      -0.12937100       1.20114800 
I       6.56764936      16.27609100      12.04439940       53      -0.16015500      -0.08829700      -0.31195600 
I       5.96492741      15.78037510      30.49705260       53       0.26503100       0.63672700       0.15632600 
I      10.27610219       5.42968702      12.05960251       53       0.55534600       0.30834800       0.07471700 
I      10.82151133       5.23473082      31.64529475       53       0.34570400       0.18546900      -0.23864900 
I      10.90015912      16.04202750      11.17075871       53       0.26189100       0.02231900       0.34877100 
I      10.54248280      16.05172504      30.80820316       53       0.37588200       0.04138000       0.03231100 
I      16.23978801       5.54120419      12.05383582       53      -0.09306100      -0.26511900      -0.02030800 
I      16.05616512       5.08489373      31.40062229       53       0.15223400      -0.11839800      -0.36351000 
I      16.39644830      16.20765999      11.38277189       53      -0.47240800       0.38057700      -0.04064200 
I      16.01581224      16.08138791      30.89025254       53       0.00141900       0.18984800      -0.04611400 
I       3.41511260       4.97095042       8.22867440       53       0.24031700      -0.09168400      -0.04200000 
I       3.82851399       4.70619357      27.28845661       53      -0.20689100      -0.03047600      -0.33263600 
I       3.58392857      16.01932288       7.88682448       53      -0.01595500      -0.27025400      -0.08791100 
I       3.39549142      15.35721214      26.86236628       53       0.21426200      -0.53919900      -0.46202900 
I       8.18080600       5.23382240       8.07637915       53       0.01413300       0.03680900      -0.66327700 
I       8.87419737       4.54978540      27.38149413       53       0.14131900      -0.17910100       0.03742100 
I       8.20995864      15.79445269       7.71406466       53       0.19399900       0.35265800       0.04290700 
I       9.03945368      15.39682167      26.99513039       53      -0.50990200      -0.20465700      -0.12646000 
I      13.06563414       5.04993237       7.86276522       53       0.34601400      -0.45712400      -0.15669200 
I      13.25248155       4.39876075      27.02550860       53       0.35670200       0.25060200       0.41402600 
I      12.93677386      15.88830359       7.45813794       53       0.41775100       0.03279000      -0.11898100 
I      13.79892517      15.87070136      26.84118538       53      -0.32414100      -0.18382100       0.09558400 
I      17.92752954       4.50862415       8.02125636       53      -0.00083900       0.00460500      -0.16214300 
I      18.46191053       4.46910766      27.14311562       53       0.19623300       0.08185300       0.07044900 
I      19.04417491      15.57993233       7.61827585       53      -0.02554400       0.56180100      -0.67995100 
I      18.24026384      15.71928052      26.94667072       53       0.18104300      -0.21071200       0.22802600 
I       0.98778109       4.08212463       3.36015489       53      -0.20900500       0.24860500       0.81069300 
I       1.32851048       3.72892640      23.34555811       53       0.17058100       0.26888800       0.65699000 
I       0.97906501      14.14022984       3.81524878       53       0.14053000       0.14389200      -0.31909700 
I       1.22354838      14.34133691      23.03174031       53       0.14018600       0.13941700       0.33598500 
I       5.78044311       3.34178530       4.36237673       53       0.19387200       0.58397600       0.11355300 
I       6.31339242       3.18899682      23.63410309       53       0.20513000       0.34099800       0.22787000 
I       6.02857918      14.49874055       3.66597295       53      -0.11256700      -0.31235500      -0.15378400 
I       5.83512068      14.15958089      23.22145105       53       0.08311700       0.01574500      -0.02923600 
I      10.81807873       3.61676993       3.86889788       53      -0.16230600       0.28924900       0.54096300 
I      11.15256220       3.04834702      23.83597753       53      -0.50017300       0.18398000      -0.53304400 
I      10.22287229      14.29238501       3.64325132       53       0.49949800      -0.00824100      -0.00179200 
I      10.96031426      13.85600387      23.18495298       53       0.10544300       0.30937900       0.23953000 
I      15.94119233       3.33992242       3.84120292       53       0.18902400       0.29165900       0.75217700 
I      16.46891620       3.63228319      23.58747428       53      -0.54963100      -0.39897300       0.01109200 
I      15.67858048      14.40245551       3.68255571       53       0.20366400       0.29673300       0.19728500 
I      15.56914729      14.22731958      23.55544430       53      -0.09124100       0.05469900      -0.55371600 
I       3.26713437       7.97212438      15.78987855       53      -0.26548000      -0.37588700       0.39643000 
I       3.78738775       8.26752757      34.89962313       53      -0.18388700      -0.42333300       0.04742200 
I       3.39165763      18.61454393      16.20319690       53      -0.39211400       1.06563000      -0.47585100 
I       3.43461872      19.09127495      35.17681781       53      -0.17486300       0.18220600      -0.03722000 
I       8.40809033       7.39677023      15.81131958       53      -0.33129800      -0.14104300      -0.58342300 
I       8.79218301       8.43003359      34.95229277       53       0.46897500      -0.45538400      -0.36319600 
I       8.35976572      18.77516907      15.62524453       53      -0.21148300       0.09203600       0.12799400 
I       8.09604335      19.23729226      35.54824756       53       0.43752900       0.76377700      -0.60566400 
I      13.03294985       8.52034384      14.88512230       53       0.69072800      -0.22431900       0.01390600 
I      13.15185047       7.80479310      34.78262840       53       0.14518600       0.15737700       0.20596400 
I      12.59873272      18.10389205      15.65663021       53       0.18774400       0.60030700       0.24192600 
I      13.16826615      18.74729103      35.08715786       53      -0.01531400      -0.06492100      -0.13802700 
I      17.84958408       7.92730241      15.37003614       53       0.35027900       0.28948500       0.27320400 
I      18.38300962       8.47321879      34.09721176       53      -0.11095300      -0.06011800       0.32397500 
I      18.44848625      19.21981108      15.83488960       53       0.08935600       0.17637400      -0.38372200 
I      18.04405205      19.39263793      34.59062558       53      -0.09039400      -0.07429000       0.26903400 
I       1.11660835       8.45933230       6.23567006       53      -0.00761400      -0.54143700      -0.23554900 
I       1.93296725       8.68607137      25.39365222       53      -0.53532800      -0.29173600      -0.15157000 
I       0.89393318      19.71512679       5.98667458       53       0.09428900      -0.15013800      -0.04426000 
I       1.12127353      19.00109676      25.13592465       53       0.19116600      -0.24429300       0.07178800 
I       5.79274186       8.70369661       6.17550492       53       0.08319800       0.16955400      -0.11221200 
I       6.55482436       8.14891808      25.55951381       53      -0.15866400      -0.12483200      -0.05244700 
I       5.52884141      19.32645296       6.05315868       53      -0.26554100       0.43236300      -0.89761600 
I       6.36114576      19.28952969      24.47770974       53      -0.11078700      -0.17440100       0.14049300 
I      10.68237524       8.58631670       6.64632717       53       0.17051200      -0.00344800      -0.50291900 
I      11.47142536       7.94859637      25.53033115       53      -0.09182500       0.17862600       0.15216600 
I      11.19136635      19.84105670       5.95119198       53       0.08900200       0.06893800       0.02835000 
I      10.58190624      19.16954056      25.16359960       53       0.20956800      -0.36570100      -0.23739800 
I      15.55876943       8.19795302       6.10149930       53       0.21143000       0.14697000       0.15813400 
I      15.97180065       8.19852229      25.30294878       53      -0.07881700      -0.10467100      -0.09319000 
I      15.63472496      19.62307072       6.04064483       53       0.75340600      -0.31851100      -0.50587000 
I      16.06223496      19.58370631      25.04754231       53       0.11971800      -0.08008700       0.38596200 
I       3.05030894       2.70482733      14.52635547       53       0.57252200      -0.58104500      -0.33484700 
I       2.95414296       2.31687084      33.10066158       53       0.31766200       0.11739200       0.32467500 
I       3.06922179      13.12854357      13.93402037       53       0.14122400       0.01030000      -0.15158000 
I       3.81331688      13.25718775      33.09588834       53       0.03875600      -0.40743800      -0.46356000 
I       7.47864653       2.28394243      13.67523231       53       0.20954700      -0.19228900      -0.00181600 
I       8.61362548       2.38257558      33.54755063       53      -0.32209400      -0.17378100       0.01001300 
I       7.50308096      12.52869295      13.35521961       53      -0.08588600      -0.08606400       0.18477000 
I       8.50739478      12.75983308      33.02368056       53       0.19010400      -0.23268400      -0.05446500 
I      12.70484736       1.79643338      13.89426577       53       0.35650000       0.46704300      -0.20390400 
I      13.85781072       1.34390468      32.88923967       53       0.11791600      -0.23584900       0.11485900 
I      13.57622699      13.40148125      13.43325711       53      -0.14132800       0.11889800       0.00266600 
I      13.13109576      13.32018122      32.91318787       53       0.50205000      -0.57409100      -0.19242000 
I      18.63730558       2.10850336      13.84321289       53      -0.45083000      -0.26169400       0.51714300 
I      18.50696361       1.43450006      33.45473321       53      -0.19662900       0.44391300      -0.39478800 
I      17.84145928      13.33221785      13.37092195       53       0.14881700      -0.31936700       0.01058000 
I      18.45998063      13.14595571      32.92728347       53      -0.14505800       0.04313200      -0.14814900 
H       4.14886585       1.81703902       5.89732979        1       0.95668400       1.33745100       0.36192200 
H       3.25113189       1.50707401      26.05102974        1      -0.55035600      -0.23748400      -0.10171000 
H       2.87526206      10.44116140       5.47640588        1       1.30337400       1.48687800       1.90445900 
H       4.44375980      10.60137935      25.95193938        1       0.91982500       1.29291400       0.33993300 
H       8.03508984       1.81149442       6.29048370        1       0.23813200       0.68755800      -0.04177400 
H       9.60330045       1.46084439      26.69285799        1       0.42011700      -1.45838400      -0.48905400 
H      10.07039596      12.01962581       6.16505103        1      -2.78984200      -0.40199800      -0.99313200 
H       9.58428855      11.83793882      24.63999565        1      -1.84450500      -1.27122500       0.88066400 
H      13.56251558       1.64852819       6.06900310        1      -1.12041800       0.60264700      -0.11310300 
H      12.94044557      -0.44540736      25.05051370        1      -1.52944200      -0.16696400      -0.24780900 
H      14.18444552      12.38684760       5.83883342        1       1.51083700       1.02665400       0.11771000 
H      14.42674087      12.04969488      24.64839058        1       0.04361000      -0.97152600      -0.06975200 
H      18.19929868       1.40298032       7.66003138        1      -0.58266400       0.13941000      -0.31858800 
H      18.87105293       1.55954856      25.66248298        1       1.23038600       0.00464500      -0.26512600 
H      19.01730234      12.41037961       5.73651356        1      -0.79289700      -1.50380300       0.14325800 
H      16.97326314      12.44189035      25.54246883        1      -0.21188500      -0.24444700       1.00796700 
H       1.16102513       8.27054098      13.01737356        1      -0.40936700       1.27569100      -0.05117900 
H       2.18778545       8.74142326      32.61962254        1       0.35171700       0.10469000      -0.05770000 
H       0.44282716      21.63870264      12.78133814        1       0.58231200      -0.94589800      -0.36657500 
H       1.49632699      21.79936680      31.30397608        1       1.64115200      -2.03601400       1.18859900 
H       4.69247015       8.15100706      13.19275561        1       0.15935600       2.45311800      -1.50811100 
H       7.62378343       9.90688046      31.82324099        1       1.28995800       0.32303000      -1.45950700 
H       4.93632823      20.68781982      11.68043614        1       1.55919500      -0.49511100       0.46095500 
H       7.46309826      19.89205856      32.07468062        1      -1.31874200       0.62810500       0.12659100 
H      10.66283010      10.29956016      14.36463081        1       0.07504700       1.47690100      -1.97433800 
H      10.24854330       9.34780693      31.59256608        1       0.21517100       0.74665900       0.16181700 
H      11.06905513      20.19602975      12.78795024        1      -0.23377400       0.33773900      -0.54516200 
H      10.43343879      20.71531268      31.39150903        1       0.51054000      -0.76120300       1.86269600 
H      15.90871214      10.76020865      11.66777622        1      -0.42541000      -1.38118400       0.86523600 
H      15.18262447      10.43585392      30.85511410        1       0.12985500       0.06229500       0.06564300 
H      15.68638813      19.11486999      13.61432582        1      -1.90293300       1.04696100      -0.03776500 
H      16.32017062      18.83016280      31.41531817        1      -0.02197500       0.80554700       0.24359500 
H       3.74969912       8.69785988       3.55826256        1      -0.93137100      -2.16513000      -0.63971400 
H       4.55346912       7.96646573      22.51126083        1       0.63760900       1.95550900       0.76383000 
H       2.38649241      17.19848850       3.50003232        1      -0.24078400      -0.31500700       0.82059300 
H       2.44332699      18.78791604      22.18275615        1       0.76242200      -1.49071400      -0.60221300 
H       9.17510114       7.75826434       2.85944566        1      -0.51758300       0.18449300       1.02994300 
H       9.79044400       6.89674431      21.98153202        1      -0.05642000      -0.25885200       1.59819700 
H       7.91729973      18.15940101       4.45135235        1       0.87151400      -1.30975200      -0.93712900 
H       8.86576543      18.08020897      22.43128441        1      -0.56685100       1.97470800      -0.55129000 
H      13.29590886       6.30369488       2.44870651        1       0.00247000      -0.70551600      -1.13527100 
H      14.80766506       6.42168308      22.03954716        1      -0.77124800       0.07471800      -0.42078100 
H      13.40364726      16.07923091       2.67504940        1      -0.78382800       1.12822500      -0.23953700 
H      13.19677649      18.49968420      22.78702083        1      -0.90979800       0.24934200      -1.10662300 
H      19.02229268       7.44321896       4.05476783        1       3.89460300      -1.56004600       4.36682900 
H      19.29249508       7.61837289      22.50881468        1       0.56144900       0.44821900      -0.73118200 
H      18.11213490      18.87837935       3.71918284        1      -0.85416100       0.69990500       0.16570300 
H      17.55851792      16.94871165      21.78864979        1      -0.37835000       0.60633800      -0.34705400 
H       1.82644241       4.38831286      15.79497393        1      -0.91136500       1.18951900       0.79406800 
H       0.72183468       3.90306286      34.61944907        1       0.33463400      -0.05789200      -0.05280200 
H      -0.82155232      15.83892849      16.66172340        1       1.21765800       1.56103700      -1.49811600 
H       2.18871989      15.64072677      36.05315676        1       0.54659900       0.32850400       0.83923800 
H       5.59125861       3.20618486      16.10022473        1       0.61095800      -0.83125700       0.70370400 
H       6.25056303       4.39277495      34.48988746        1       0.92141800      -0.45315300      -0.62645000 
H       6.41514402      15.13216687      15.31782372        1      -0.66167900      -0.77859000       0.73309400 
H       6.33832408      16.42428632      33.94431724        1      -1.03216600      -0.59094500       0.02834900 
H      12.30834688       4.76619164      16.01997018        1      -1.95015400       0.76270800      -1.23446100 
H      11.10905985       3.91079148      35.87313655        1       0.42597300       0.92498000       0.76340900 
H       9.33430261      15.44537739      14.73430875        1       1.78315800      -0.80158800       0.72012800 
H       9.63249611      17.00444572      34.98919604        1       0.88017300       1.32852000       0.17657000 
H      16.16627062       5.53904118      16.92891739        1       0.79885100       0.84674300       1.81656600 
H      14.51568147       3.21077901      34.84108475        1       1.42389000       2.50664200       0.56136400 
H      15.89735082      16.33443929      14.15506678        1      -0.80827300       0.76577300       2.02042700 
H      16.33633018      14.86708686      36.06775259        1      -0.50076300       0.03106700      -0.54224400 
H       2.49240395       2.30301236       6.62287920        1      -0.97023100       3.36680600       0.85158800 
H       4.56520461       1.34291922      24.65633730        1      -1.41384100       0.32698800       1.63202300 
H       1.75324017      11.53527623       5.33921270        1       1.65411100       1.25113200       1.85655700 
H       4.68660741      12.36194195      26.54597327        1       0.20875200      -0.35328700      -0.87751900 