768
Lattice="19.205470922 0.0106331127993 0.297359209616 -0.00157085818901 22.5276510065 0.0349723170946 0.563073814595 0.0573464323813 39.7634224409" Properties=species:S:1:pos:R:3:Z:I:1:forces:R:3 energy=-99810.9714631 stress="410.458252 906.2754 -431.462412 906.2754 -4298.088769 3535.158908 -431.462412 3535.158908 -2179.330003" pbc="T T T"
I       3.74218046       3.92155346      19.95259493       53       0.01384700       0.16525100       0.01398000 
I       4.27765003       4.57780221      39.68652822       53      -0.40279800      -0.17973700       0.28702100 
I       3.89096014      15.24747739      19.69936329       53      -0.38264000      -0.31676300       0.58336100 
I       4.35376286      15.61228849      40.15019421       53      -0.34757100       0.79791200      -0.56736600 
I       8.76043453       4.09405674      20.48896517       53      -0.29394000      -0.52590600      -0.06816600 
I       9.13082449       4.56471476      40.23592526       53      -0.10628400      -0.42798300       0.03309200 
I       8.80462477      15.52929178      20.29090765       53      -0.04027000      -0.62317500      -0.17889100 
I       8.80080882      15.69160874      39.69800034       53      -0.12689800      -0.09700700       0.20929800 
I      13.11639497       3.73933998      20.19332339       53       0.10603400       0.23131000      -0.02327400 
I      14.04838190       4.75686691      39.93161344       53      -0.19120000      -0.32608000       0.26563300 
I      13.26309837      15.55542119      20.41660663       53      -0.02559600      -0.41180700      -0.12317500 
I      13.87318977      16.00414482      39.91011573       53      -0.34237100      -0.60344700      -0.45480300 
I      17.83105492       4.51380339      20.16250869       53       0.10904800      -0.46617700       0.16146600 
I      18.26975700       4.16202819      39.34950737       53       0.03866200      -0.05792500       0.12099100 
I      18.18110459      15.35545216      19.71392456       53      -0.04829300      -0.23627400      -0.01876800 
I      18.06188111      15.63408440      39.38678948       53       0.46655900      -0.18889900       0.14288000 
I       1.18288654       8.27042280      -0.36478380       53      -0.37479200      -0.19034700       0.55930100 
I       1.39345937       7.75183642      20.08071085       53      -0.43281400      -0.06215800       0.31954400 
I       1.37476677      18.91176795       0.25859621       53       0.48041700      -0.31425100       0.23466200 
I       1.69809568      19.08332305      20.35579400       53      -0.83085900       0.12744700      -0.56575200 
I       6.02966638       8.43323407       0.29919491       53      -0.35945400       0.10330800       0.05131000 
I       6.02149670       7.58985506      19.94910953       53       0.25927600       0.35792900      -0.52573500 
I       5.71569994      19.80148424       0.58350306       53      -0.30026500      -0.60291600       0.27045400 
I       6.70947598      18.52278545      19.87705222       53      -0.67302300       0.14026200       0.01303000 
I      10.29748186       8.07364299       0.12149992       53       0.85054100       0.07258600       0.00233900 
I      11.20571588       7.56582922      20.07488129       53      -0.25291800       0.32881200      -0.58009100 
I      10.40923114      19.77932847       0.49716752       53      -0.14735900      -0.50612500       0.21064300 
I      11.12573554      19.11007111      20.61614504       53       0.22034200       0.17408200      -0.06498000 
I      15.72068275       8.27870165       0.04544066       53      -0.09540000      -0.17082100       0.15022600 
I      15.55375127       7.59889508      20.03772857       53       0.22237200       0.30476500      -0.22458500 
I      15.49321359      19.01288108       0.60299929       53      -0.11971700       0.71692700      -0.64125800 
I      16.06250615      18.88138792      20.11855398       53      -0.31403600      -0.08475200      -0.44588100 
I       3.34768884       9.51041317       9.71393029       53       0.47449400      -0.34751700       0.10165000 
I       4.45091447       8.99198246      29.80356187       53       0.08040600       0.00264700      -0.03534400 
I       4.02275554      20.75713108       9.59469467       53      -0.51019000      -0.00513500      -0.02234300 
I       4.17518236      19.90892224      29.54014088       53      -0.00768400       0.53713100       0.15185900 
I       8.34315536       8.52243536      10.82930834       53      -0.45727400       0.64652200      -0.22306100 
I       9.21830229       9.20965246      29.55725657       53      -0.42506400      -0.30749500      -0.02300700 
I       8.47419566      20.58102615      10.29063337       53       0.15347900       0.00895000      -0.82066000 
I       9.04046375      20.73821811      29.53024973       53      -0.21310400      -0.88212400      -0.06884600 
I      13.04570433       9.29394710      10.54049383       53       0.07606300       0.05185800       0.20948300 
I      13.75983628       8.85659652      29.95653152       53       0.25195600       0.14603700       0.01425100 
I      13.56246310      20.45589224       9.99618742       53      -0.03940000      -0.55724900       0.35403000 
I      13.65780226      19.89491391      29.03151237       53       0.91630100       0.41962300       0.49103400 
I      18.04042181       9.25842184      10.42663896       53       0.58228200       0.16170900       0.00559800 
I      19.06343562       8.89657658      30.41443668       53      -0.34183300      -0.61374700      -0.74021100 
I      18.49770530      20.61428003      10.25714801       53      -0.11288700      -0.13142300      -0.26825100 
I      18.24719992      19.95146885      29.56460948       53       0.38057500       0.11224200       0.30982500 
I       1.45813749       1.65736759      10.38154805       53       0.00169200       0.01955100      -0.08629400 
I       1.62779725       1.33425500      30.32848931       53      -0.26750400       0.13766500      -0.26642000 
I       1.12485577      13.16340548       9.55697284       53      -0.06704700       0.08088400       0.69391300 
I       1.91865064      12.84676737      29.86677224       53      -0.48991300      -0.42201700      -0.30980600 
I       5.75416777       1.60945339      10.60001459       53       0.43660900       0.00953400      -0.29782300 
I       6.47669683       1.27898283      30.07868242       53       0.12804300      -0.21324000       0.03304400 
I       6.30985734      12.72505619      10.33881444       53      -0.14050400       0.41343800      -0.25134200 
I       6.55755964      12.88850530      29.40784915       53       0.14969500      -0.39531800       0.20002300 
I      10.83212961       1.51998017      10.89012906       53       0.29632000      -0.14813700      -0.48738500 
I      11.36839371       1.03168083      30.34872548       53      -0.40856400      -0.09673800       0.17167900 
I      10.62172256      12.58008336      10.20461625       53       0.29067600       0.21607100       0.12770700 
I      11.11759316      12.26210993      30.07350991       53       0.48550600       0.73219500       0.05851700 
I      15.41261260       1.90542369       9.97516784       53       0.44470900       0.24599700       0.50927500 
I      16.14366210       0.91634708      30.61647997       53      -0.26869500      -0.05236200       0.02011900 
I      15.80427283      12.95495543      10.25346347       53      -0.12867500       0.10026800       0.12362100 
I      16.35124787      12.41181150      29.85607544       53      -0.02038600       0.26696800       0.15819700 
I       1.38634604       0.59985656      18.42880083       53       0.41872400      -0.13547300      -0.14672500 
I       1.12797929       0.52294516      37.85543322       53       0.72815200       0.57569100      -0.40634400 
I       1.53246213      12.20427222      17.86813081       53      -0.24483000      -0.58248800      -0.02329300 
I       1.83942743      12.36253163      37.37597071       53      -0.28035500      -0.05299900      -0.05082500 
I       6.32136282       0.39526694      18.41781796       53       0.34285400       0.44561200      -0.16764900 
I       6.23048149       0.91918150      37.80811440       53      -0.26944300      -0.01129100       0.09820700 
I       5.75947776      11.73733008      17.39608388       53       0.39745700      -0.30630900       0.70302400 
I       6.54561546      12.53943918      37.87402979       53      -0.03546600       0.00999200       0.01539900 
I      10.95705631       0.49786096      18.04343515       53       0.15458900      -0.09490500       0.26339100 
I      11.38859956       1.06368024      38.42264646       53       0.07928100       0.22022600      -0.19449600 
I      10.73176148      11.87160408      17.81829700       53      -0.06937700      -0.17862200       0.47800000 
I      11.40362076      12.03532713      37.97868999       53       0.43544300       0.44209400      -0.71537400 
I      15.47145205       0.95911304      18.08040894       53       0.31064400      -0.43240900       0.04378800 
I      16.17961191       0.15434238      37.87689049       53       0.15531900       0.50299700      -0.01516900 
I      15.85095683      11.68256232      17.92328168       53       0.01662500       0.03697100       0.07829800 
I      15.74076224      12.47867911      37.37403594       53       0.13043200      -0.52346100       0.22324200 
I       3.27861455      11.64726552       1.36420947       53      -0.24987900       0.44471400       1.36905100 
I       3.85861502      10.98460091      21.47800134       53      -0.01035300       0.27107100       0.12573400 
I       3.48830895      23.14260560       2.23814945       53      -0.46138700      -0.39111600      -0.04801900 
I       3.92903677      22.18933627      22.11981821       53      -0.11079400       0.50650300       0.09389700 
I       8.70803721      11.88752494       2.43100413       53      -0.60156000      -0.42947400       0.05016300 
I       8.53100634      10.84275060      21.97377692       53       0.00554700       0.32621700      -0.41093400 
I       8.41132696      22.93866494       2.30188646       53      -0.11489700       0.15334600       0.08554400 
I       8.39738737      22.34105853      22.37411529       53      -0.10703600      -0.03976100      -0.25813500 
I      12.74183324      11.18830200       2.00118539       53       0.39868600       0.10597800      -0.06335900 
I      13.39143364      10.94118700      22.10755966       53      -0.17832500       0.27844700       0.03921700 
I      12.99438862      22.77300106       2.33691134       53       0.45651400       0.05687300      -0.00572600 
I      13.80491000      22.18341371      22.26975329       53      -0.27860700       0.03735100      -0.38184100 
I      17.72478646      11.69453885       2.07972830       53       0.10130400      -0.53673300      -0.15851300 
I      17.45536508      10.91840349      22.41931840       53       0.38317600       0.12725400      -0.42302300 
I      18.14711078      22.51568155       1.84812881       53      -0.20346200       0.42375700       0.43109200 
I      18.30086686      22.52665330      22.49767531       53      -0.04557200       0.12894400      -0.20033400 
I       0.95440148       5.79356760      12.41909567       53       0.35533900       0.07916800       0.02931600 
I       2.08485936       5.48721488      32.06135716       53      -0.29408000       0.14869200      -0.05608600 
I       1.34588178      17.15544640      11.37997601       53       0.16157300       0.29145900       0.18887500 
I       1.78017150      16.96261598      31.78788227       53      -0.20713000      -0.12600900      -0.44827700 
I       5.94400103       5.80843314      12.17876144       53       0.00125100      -0.04660700      -0.04748600 
I       6.64567023       5.59616208      32.08075837       53       0.32049800       0.13100700       0.02362400 
I       6.05732116      17.16180767      11.47947482       53      -0.23699800       0.22804000      -0.05383500 
I       6.73563572      16.85930526      31.89072496       53      -0.03626200       0.04420400      -0.19941800 
I      10.69196236       5.92043411      12.45661128       53       0.28380500      -0.33374500      -0.04140300 
I      11.55416740       5.77800458      31.90047156       53      -0.27912400      -0.40098000      -0.17441500 
I      10.82572387      17.22948699      12.34533610       53       0.18628900      -0.18614200      -0.35716000 
I      11.46013830      16.76637293      31.68266004       53       0.17328500      -0.12572400       0.05743500 
I      15.52973857       5.90274629      12.51425895       53       0.53060500       0.07135100       0.72565000 
I      15.72116291       5.62056396      32.11392228       53       0.41795200      -0.22088400      -0.16746600 
I      15.35480623      16.61398654      12.47388567       53       0.29904900       0.39834500      -0.14233500 
I      15.95915096      16.86887294      31.43928013       53      -0.17310900       0.01621000      -0.05789700 
I       3.46182372       4.79401457       7.67799699       53       0.44001300       0.43100000       0.34284000 
I       4.70527119       4.54074553      28.16857749       53      -0.05329500       0.32461800      -0.26643300 
I       3.89799867      16.53938089       7.77356764       53      -0.02586800       0.49900900       0.28065700 
I       4.62447207      16.12771091      27.86823527       53      -0.69463600      -0.20254100      -0.57352400 
I       8.49134672       5.20874337       8.30498775       53      -0.06002100      -0.07712700       0.11570300 
I       9.19046959       4.75056528      28.06236969       53      -0.23984800      -0.10386000       0.05128000 
I       9.03292687      16.46036894       7.72182939       53      -0.36019400       0.14125800      -0.26930300 
I       8.87016413      15.70023431      27.94629297       53       0.17140900       0.43750200      -0.19069800 
I      13.34638013       5.61479404       8.15669125       53      -0.02878200      -0.41360000       0.28507400 
I      13.88255932       4.86032015      28.16736548       53       0.14220700      -0.12731000       0.00237300 
I      13.24391550      16.18854882       8.33007801       53       0.24694400       0.25650700       0.07118700 
I      13.50421701      15.79507108      27.41727969       53       0.08362000      -0.04989300       0.16639900 
I      17.93567165       5.46768832       8.76410997       53      -0.15978500      -0.49595100      -0.34182000 
I      18.77786594       4.63995017      28.42787220       53       0.03994800       0.34588700      -0.32824600 
I      18.22314982      16.47789705       8.22844733       53       0.42707800      -0.06106600      -0.25489100 
I      19.00814728      15.60571393      27.90994893       53      -0.26226800       0.25750100      -0.22652300 
I       0.70713688       3.84433982       3.86222880       53      -0.04901700      -0.17215300      -0.43225500 
I       1.99288531       3.33863872      24.27636896       53      -0.03973100       0.18278100       0.20567300 
I       0.44648359      14.73275043       3.65388590       53       0.55034400      -0.18559000      -0.09480000 
I       1.16459625      14.38363478      23.84078029       53       0.32245500       0.24193400       0.23349700 
I       5.65767018       3.95479116       4.11632775       53      -0.06041200      -0.24640500      -0.13847700 
I       6.54790503       3.25234462      24.30660343       53      -0.48031100      -0.29233700      -0.10329200 
I       6.23373946      15.49038928       4.32190699       53      -0.40386200      -0.56658000      -0.27397700 
I       6.15103185      14.32604675      23.62916730       53      -0.02563100      -0.04845500       0.14713600 
I      11.26604128       3.82829159       4.76476972       53      -0.03538300      -0.11108200      -0.54114900 
I      11.34131208       2.88085486      24.30623548       53      -0.30988000       0.11822800      -0.11850600 
I      11.54489388      14.93618971       3.89669367       53      -0.45407200      -0.16970700      -0.00289700 
I      10.83937639      14.19402391      24.06529474       53       0.64311900       0.47252500      -0.38424300 
I      15.74843054       3.52230075       3.81967613       53       0.12925300      -0.12659500       0.15027800 
I      15.22428449       2.75482027      24.31751756       53       0.72123700       0.15601500      -0.10361000 
I      15.53946597      14.81783858       3.51687148       53      -0.15174800      -0.23986300       0.54544000 
I      16.17129060      14.76268367      23.86594334       53      -0.46711500      -0.61556700      -0.16335200 
I       3.87475927       7.53014426      15.99164973       53      -0.19273800       0.04817000      -0.22059600 
I       4.16422275       8.51088136      35.67661955       53      -0.01084700       0.02711300       0.03544300 
I       4.64665311      19.84830471      16.03840247       53      -0.59508900       0.09796500       0.28859000 
I       3.78757563      19.81609908      36.05006531       53       0.31553800      -0.09167400       0.40887400 
I       8.60924398       7.81932671      15.46484009       53      -0.18856300      -0.04983800       0.48029500 
I       8.55256066       8.23155164      36.61667002       53      -0.27019300       0.31798800      -1.05185000 
I       8.80228466      19.73048529      16.00746950       53       0.18986300      -0.12925000       0.54242300 
I       9.29509138      20.11638672      36.15133007       53      -0.39735600       0.09622600       0.04758800 
I      13.27182805       8.22557854      16.24417883       53       0.30850300       0.22944100      -0.20855500 
I      13.52915262       8.56963085      35.76286209       53       0.23236700      -0.18840700       0.32884400 
I      13.53931670      19.67475520      16.20556139       53       0.19291100       0.30377500       0.00498600 
I      13.60577188      19.02154607      36.51647777       53      -0.15024600       0.01691800      -0.03653100 
I      18.34147264       8.49912621      16.31488665       53       0.21796000       0.20561100       0.21235300 
I      18.61250228       8.19386823      36.53818473       53      -0.24537300       0.26228500      -0.58252300 
I      18.31165463      20.22063651      16.15964866       53       0.22778000      -0.38859600       0.04286700 
I      18.08679346      19.51068948      36.20085658       53       0.00801000       0.07370100      -0.34150900 
I       1.16470745       8.82596681       6.22540299       53      -0.00401600      -0.29212700      -0.02639300 
I       1.93423084       8.05239699      26.26392104       53      -0.37731400       0.23833300      -0.55969700 
I       1.30456740      20.66321317       5.47668386       53       0.01303500      -0.27318200      -0.05011900 
I       1.50150187      19.46369918      25.50843832       53       0.28157400       0.06305600       0.34601900 
I       6.39680646       8.69167562       6.19167705       53       0.02883300       0.02455600       0.20612700 
I       6.74093964       8.09734334      25.38703747       53      -0.00282700      -0.07660900       0.40498700 
I       5.80717463      21.17859011       5.46340435       53      -0.01227900      -0.87167300      -0.10900900 
I       6.38698405      19.77100716      25.55453603       53       0.03259300      -0.30029200       0.27102700 
I      11.03326416       8.74514848       6.40695942       53      -0.13162600       0.22423400       0.16677600 
I      11.88872381       8.71260119      25.29067229       53       0.00987400      -0.05012800       0.51359200 
I      11.14708062      20.34376389       6.59071748       53      -0.18386300       0.01779800      -0.25675000 
I      11.08779841      19.80294390      25.77722590       53       0.08388900      -0.32767200      -0.15636500 
I      15.94391141       8.94946517       6.79642106       53      -0.70083700      -0.54920100      -0.26928800 
I      16.23537030       8.33117579      26.37333828       53       0.09668200      -0.00440300      -0.07968700 
I      15.91551061      19.77886449       6.14343634       53      -0.15108000       0.08835500       0.43908300 
I      16.26437153      20.42359867      25.81573114       53       0.17912200      -0.32237700       0.05476200 
I       4.13543682       2.09488496      14.39127780       53       0.11941000       0.15569700       0.32434400 
I       4.01266728       1.87876358      33.92631053       53       0.37936900      -0.12919900       0.30870300 
I       3.46173779      14.13475080      14.12648206       53       0.18592400       0.52836500       0.10725500 
I       3.87828208      13.30852488      33.76134312       53       0.31090700      -0.12466200      -0.12005000 
I       8.53072330       2.06288453      14.55326725       53      -0.08555100       0.41046200      -0.22694800 
I       8.85440197       2.12293802      34.43188931       53      -0.27361400      -0.12664900      -0.12053000 
I       8.71584601      14.12007227      13.62264496       53      -0.15298800      -0.27850600       0.46848100 
I       8.88719389      13.63144743      33.92959882       53       0.07375600      -0.13776200       0.70375600 
I      13.45384745       2.10888116      14.14834367       53       0.20884800      -0.02256800       0.18161500 
I      13.81083964       2.49978730      34.21751064       53      -0.18952100      -0.39526400       0.21808700 
I      13.05308757      13.60694548      14.48045888       53       0.30207400      -0.27544600       0.06173300 
I      14.06472529      13.34162207      33.74601866       53      -0.50819100       0.42787200      -0.26782700 
I      17.82563475       2.30697811      14.27953560       53       0.12246800      -0.36190000       0.72872400 
I      18.20860270       1.85478221      34.22767269       53       0.05609300       0.08400500       0.00499000 
I      18.32028323      13.51323176      14.33182577       53      -0.34418300       0.22940100      -0.01721000 
I      18.72377848      13.13481869      33.79486689       53      -0.36426700       0.53196000      -0.10250500 
H       2.98982632       0.90298974       5.43196292        1      -0.81286500       1.32458100      -0.85687500 
H       2.60289483       0.75171427      27.09746145        1       3.33310200       0.29491300      -0.36169000 
H       2.73468418      12.59547858       7.60501374        1       0.25249300       1.94328900       0.88559900 
H       4.81436800      10.84467121      26.06308368        1       0.54897100       0.28112100      -0.04062200 
H       8.43757869       2.66677337       7.24175026        1      -0.53617800      -0.06601900       1.08285900 
H       9.72692474       1.53811782      26.25541879        1      -0.90549100      -1.96100600       0.06166300 
H       8.72527116      13.64121930       6.92350389        1       1.80436100      -0.65521800      -0.00790300 
H       9.10008864      11.04209695      27.15837618        1      -0.17426200       0.09107000      -1.05301000 
H      13.06557660       1.46466757       5.89829553        1      -1.58031500      -0.70336700       1.77071700 
H      14.37338983       0.29893613      27.94506580        1       0.28584400      -0.90657400       0.40080100 
H      13.68890101      11.94653826       5.85158625        1       1.00811400      -0.28741900      -0.85053900 
H      14.84522954      10.99990515      25.79650480        1      -0.08364600       1.09742700       0.18567400 
H      16.69598756       0.75149492       6.95729251        1       0.70482600       0.50133000      -0.45365300 
H      18.81813712       0.97100668      25.73204402        1      -0.89853500      -1.14901000      -3.44204900 
H      18.98410627      13.43704008       7.55801638        1      -0.70460300      -0.73484700      -2.08239700 
H      19.20514644      12.33766679      26.17234930        1       1.06083600       0.26655900       0.35356000 
H       2.55636246      10.81022554      12.96344150        1      -0.42909000       0.02083800      -0.23879200 
H       0.55212431       9.07814514      32.75916390        1       1.08082500      -0.99894200      -0.14366100 
H       0.74308567      21.44327163      12.81217614        1       1.00289500       0.67472700       0.85471000 
H       1.24316342      19.88849704      33.79791056        1       0.93157900       2.43510100      -1.31382000 
H       5.12527156      10.45213154      13.45870458        1       1.06469900       0.49530700      -0.00639200 
H       7.17257791      10.53493012      32.09163509        1       0.47660400       0.63328000      -1.91613700 
H       7.02444720      20.37205450      12.28101582        1      -0.16818900      -0.89962500      -1.57975300 
H       6.53260180      20.39903101      32.02883109        1      -0.62063300       0.12763200      -1.00950200 
H      10.75285788      11.84407565      14.48124936        1      -0.03172000      -2.31927400      -1.69009100 
H       9.94836015      10.79437645      32.62797096        1       0.44303000      -0.90041800       1.43210300 
H      12.56546751      20.83850740      13.32273033        1      -1.26124700       0.06384100       0.13159400 
H      11.57885737      20.30478457      33.99701127        1       1.05940500       0.67652000       0.25381200 
H      14.93602696       9.17933510      13.09810569        1      -3.29823700      -1.10708000      -1.53233700 
H      17.72065917      10.50436308      32.62903235        1      -0.77021600      -0.64716500      -0.02902500 
H      15.59774844      19.64176213      13.26293461        1      -1.07783900       1.69079700       0.26978500 
H      16.48664089      19.76673127      33.68763712        1      -1.52649100       1.67301700       0.14081200 
H       3.16817836       8.30351090       4.26268341        1      -1.90609800       1.25979200       2.31156800 
H       3.55354910       7.32682022      24.22578409        1       1.32304700      -0.59206300       0.20750200 
H       2.88300493      17.25872274       4.90105127        1      -0.30049600       0.37245300      -2.50620500 
H       3.37366865      17.52569080      21.72410347        1      -0.45005500      -1.28721900       0.81595100 
H       7.31898513       6.29132950       2.81484545        1      -0.28362700      -1.15126900       0.40669700 
H      10.85752414       5.75440633      22.76878886        1      -0.54386800      -0.07889000       0.54467700 
H       8.01818786      17.97345918       4.88382844        1       0.51067100      -0.53141300       2.16317100 
H       7.84290475      17.99932173      22.88805379        1      -0.20560200      -1.00082200      -0.32031300 
H      13.43049484       5.63994394       2.74369083        1      -0.77543200       1.85363600       1.31047200 
H      15.11418492       5.46657336      23.01799328        1       0.61469100      -0.54096400      -1.35814900 
H      14.11020235      19.05706020       3.38279964        1       0.14519500       0.53151800      -0.53048000 
H      14.10013834      19.29896630      23.40205496        1       0.24234400      -1.13913800      -0.41962400 
H      17.86958643       6.79056218       4.23466270        1       1.16602700      -1.22980300       2.70434100 
H      18.70571159       6.27003497      22.78753403        1       0.12538900       0.16497900      -1.42895700 
H      17.32579050      18.80270450       2.63102573        1       0.51816700      -0.91516000       0.83208800 
H      16.64026658      17.14802778      22.88007415        1       0.62362200       0.23427000       0.08560700 
H       0.87240955       3.38137738      17.77730913        1      -0.33803400      -0.02005300       0.39402500 
H       0.73610880       4.43331965      35.16172479        1      -2.22655100       0.87446700      -1.44186400 
H       2.42687280      17.61111253      15.97487773        1       0.17331500      -0.49586700       1.23186200 
H       0.45513847      15.38414408      35.45169166        1      -0.94448300      -0.65452200      -0.01219300 
H       6.12749122       5.96883151      17.15523109        1      -0.36793700      -1.05810000       0.28681900 
H       7.56212446       4.28993487      37.00523705        1       1.04150400       0.88649500       0.52896100 
H       5.85759069      15.02772404      15.52506037        1      -1.06526600      -0.38516400      -0.94686900 
H       6.47173256      16.98091738      35.37441737        1       0.36589500      -0.75138700       0.71318600 
H      10.95291992       5.10922232      15.48209527        1      -0.87868500      -0.41920700      -0.88346000 
H       9.69704811       5.17278851      37.34206888        1      -0.07103800       1.11035800      -1.05301800 
H      12.48062398      17.13276094      16.20158876        1       0.09782200       0.55729100       0.16401600 
H       9.68638871      16.07730901      35.51390937        1       0.42953700       0.95191600       0.90894200 
H      17.23525085       5.93016252      17.16786265        1      -1.52566900       0.57561300      -0.13313900 
H      16.29503258       6.04603706      35.32749986        1       1.27007500       1.18408200      -1.16875900 
H      15.23118656      16.97373733      17.33525811        1       0.30609300      -0.80262600       0.10549500 
H      16.31975995      16.56863180      34.68703348        1       0.21904000      -0.12049600       0.79692800 
H       3.00418340       2.66423311       6.35666972        1      -1.46889100       3.19097300      -0.72365000 
H       3.81975295       2.01960507      26.43165311        1       0.05667600       0.56274700       0.03162500 
H       4.63484438      12.84810675       7.59235489        1      -0.15268600      -0.88237900       0.42973900 
H       3.24137591      10.60442695      26.27653844        1      -1.80060800      -0.30001900      -0.03828600 