768
Lattice="19.558761019 0.145106854161 0.0520305966826 0.155726606105 22.5554990027 0.268931599643 0.0557615593005 0.473471126132 39.6761743476" Properties=species:S:1:pos:R:3:Z:I:1:forces:R:3 energy=-99811.7851486 stress="1529.416294 -1236.824422 -122.30791 -1236.824422 1972.471901 969.149869 -122.30791 969.149869 -1976.94434" pbc="T T T"
I       3.69646897       3.92068379      20.20015285       53       0.03392400       0.16728000      -0.10422700 
I       3.45215888       4.53401935      39.57209185       53       0.11265600       0.13051500       0.11471500 
I       3.37642784      15.34144744      19.63914003       53       0.30456900       0.02248500      -0.08541300 
I       3.64279200      16.39359919      39.89659532       53       0.33386600      -0.84966500       0.09723700 
I       8.80489730       3.94781899      20.51551150       53      -0.25069700       0.20903900      -0.13522400 
I       7.98179095       5.17985730      39.36374224       53       0.67768400       0.08364000       0.34490000 
I       8.58206206      15.72863270      20.12854941       53      -0.29775300      -0.00319100       0.15537100 
I       8.42958255      16.38068588      40.28643323       53       0.00924300      -0.35810800      -0.40136400 
I      13.36731174       4.18080736      20.39940330       53      -0.11515400      -0.03500800      -0.61146900 
I      13.44490115       5.01349065      39.74655341       53       0.09273100      -0.09568700      -0.11111000 
I      13.50987752      15.73146491      20.17390526       53       0.39320600      -0.01014300       0.12637800 
I      13.21269387      16.28337754      39.28803251       53       0.36332600       0.15032300       0.05964300 
I      18.36028920       4.22960506      20.25959161       53      -0.33248000       0.20622600      -0.12246100 
I      18.69041751       4.48179095      38.79332796       53       0.06817700      -0.24451600       0.65778800 
I      18.29723207      15.51427683      20.05308719       53       0.20826900       0.19914200       0.01650900 
I      18.32880527      15.91623885      39.00599182       53       0.21224700       0.05069100       0.45414500 
I       1.12744355       8.10720932       0.38300188       53       0.19238500       0.08989700      -0.22730500 
I       0.84219431       7.98446897      19.70285246       53       0.43592000       0.04156400       0.03369400 
I       1.56588643      18.90446805       0.48275491       53      -0.52034200       0.47010300      -0.06448000 
I       1.39598663      18.73296651      19.92971588       53       0.13412200       0.54545700      -0.24043600 
I       6.04883582       8.95983470       1.00853965       53       0.32280000      -0.16220800      -0.24117400 
I       6.00332275       7.87091806      19.66031056       53       0.01631500      -0.07155200       0.11943600 
I       6.18169380      19.51081744       0.94229021       53       0.11341100       0.04305700      -0.40039300 
I       5.62572965      18.92320401      19.85073573       53       1.22183600      -0.64747800       0.18420400 
I      11.39558422       7.73521064       0.00833228       53      -0.46841800       0.32856900       0.06028500 
I      10.43215391       7.70539641      19.39313894       53       0.45041100      -0.33722900       0.78674100 
I      10.92207353      19.36265826       0.66748625       53       0.04167300       0.20535300      -0.33404300 
I      11.74592140      19.30280055      19.97707923       53      -0.47240000       0.11454900       0.40993700 
I      15.87776774       8.01703120       0.17650862       53      -0.18664500       0.06961400      -0.08696000 
I      15.85763596       8.17527454      20.31086141       53      -0.17080700      -0.31497900      -0.22370900 
I      15.57730048      18.85259367       0.13211848       53       0.08603500      -0.13708800       0.36581300 
I      15.96461862      19.02214046      20.22896992       53       0.23329300       0.30512600      -0.03166800 
I       4.52651584       9.57655228       9.38984387       53      -0.85510000       0.05210700       0.36965400 
I       4.07593160       9.40110878      29.43135169       53      -0.03125700      -0.05102200      -0.12366300 
I       3.93749037      20.89268058       9.34100965       53       0.03963500      -0.03941600       0.25320200 
I       3.77579300      20.90748676      30.14760217       53       0.22087300      -0.47926200       0.14009100 
I       8.18192596       9.27473383      10.75878863       53       0.67143000      -0.34518500       0.15268400 
I       9.14203207       9.14829599      29.70419887       53       0.09738400       0.17845900      -0.33576100 
I       8.85044487      20.51295623       9.93281457       53      -0.10808200       0.39773100       0.08780700 
I       9.17830904      20.43393347      29.46181513       53      -0.21349000       0.52774200       0.39240000 
I      13.29479838       9.92132142      10.07575974       53      -0.00094700      -0.29073800      -0.03285200 
I      13.76337807       9.48868293      29.72380823       53      -0.23833700      -0.28948100      -0.15158900 
I      13.55250463      20.90330845      10.17423768       53       0.34450500      -0.43394300       0.39552400 
I      14.21295906      20.43709332      29.45085251       53      -0.62121700      -0.00671500      -0.10345400 
I      18.72824854       9.43031132      10.09239083       53      -1.20636300       0.68115400       0.67153700 
I      18.81251778       9.20668181      30.13242269       53      -0.09441400      -0.01539700      -0.06416400 
I      18.59672653      20.72642045       9.77260635       53      -0.21332000       0.19008100       0.18584500 
I      18.38551935      20.15785035      29.71637471       53      -0.10952300      -0.00312300       0.00038300 
I       1.19577555       1.77956773      10.16945275       53      -0.27318500      -0.08296100      -0.15624800 
I       1.41731439       1.95596070      30.30935837       53       0.08728000      -0.40704800      -0.23065100 
I       0.84298453      13.25416152       9.77630992       53       0.09216600       0.07147400       0.03870700 
I       1.35586509      13.16988721      29.75461251       53       0.39324700       0.01238300      -0.35070100 
I       6.51920187       1.81882399      10.62061723       53      -0.12513600      -0.01492900      -0.39093700 
I       6.50608771       2.02777717      29.53998174       53      -0.14437600      -0.23685300       0.20055100 
I       6.44222921      13.27814193      10.38158405       53      -0.61406200      -0.44855400      -0.11562900 
I       6.64652325      13.06516057      30.18884057       53      -0.15905400       0.41840400      -0.13018800 
I      11.11383365       1.60257727      10.36191991       53       0.08091300       0.49880700       0.21081700 
I      10.84872938       1.93064128      29.82247485       53       0.66568000      -0.34546900      -0.07141500 
I      10.81326799      13.13167781      10.23836398       53       0.09227800       0.00751300      -0.24110900 
I      11.18639569      13.29794809      29.67168431       53      -0.55021800      -0.05254100       0.32780000 
I      16.25907151       2.30055030       9.80888027       53      -0.48371700      -0.24148300       0.12443800 
I      15.73486315       1.61020455      30.73952679       53       0.21999300       0.21059600      -0.47088200 
I      15.60808954      12.99246361      11.38398963       53       0.30983700       0.16452900      -0.49023100 
I      16.42359093      13.07347155      29.41797987       53      -0.16654100      -0.10910300       0.06665600 
I       1.19320404       0.67611981      18.04756088       53      -0.22202000       0.02785800       0.06160000 
I       1.04177951       1.03896962      37.76186693       53       0.16189500      -0.62123100       0.09668800 
I       0.97474695      11.88828228      17.89208483       53       0.16090700       0.23559100      -0.08587700 
I       1.08329179      12.43371290      37.53614268       53       0.20088800      -0.22393900       0.40637400 
I       6.31472828       0.81616988      18.06921832       53      -0.19255500      -0.65589200       0.42588000 
I       5.73845585       1.29486720      37.79752714       53       0.46560600      -0.01735600       0.20062600 
I       6.35892974      11.98330212      17.52720825       53      -0.56713700       0.51748200      -0.06988900 
I       6.63946709      12.62089604      37.83465823       53      -0.26966000       0.24127000       0.00420900 
I      10.71896735       0.78981577      18.12207058       53       0.08145700      -0.18704100      -0.37294400 
I      10.97951493       1.74000208      38.17450450       53       0.08002000      -0.16798800      -0.00799700 
I      10.96917110      11.77001238      17.96980714       53       0.00780100       0.19848700      -0.25506000 
I      11.38689791      12.99337251      37.46557291       53      -0.28348300      -0.83708700       0.45904100 
I      15.88780522       1.34894282      17.84499538       53       0.05375000      -0.00224600       0.50462500 
I      16.22978477       0.83393811      37.79493129       53      -0.28618300      -0.19251500      -0.33370300 
I      15.24396564      12.10322955      17.99114402       53       0.39275800      -0.11291100       0.12520000 
I      16.03869416      12.67051744      37.81824017       53      -0.73676600       0.46227100      -0.31235600 
I       3.22357706      11.75486942       2.54980254       53       0.24331900      -0.17285600      -0.58814000 
I       4.10416539      11.18992276      21.54708108       53      -0.29736100       0.10437400       0.16840700 
I       3.67040700      22.75400184       2.36796934       53       0.11559300      -0.13691100      -0.16441600 
I       3.71163932      22.63083239      22.02695712       53       0.36710700      -0.46244900       0.42894600 
I       8.66110004      11.77605516       2.15073460       53       0.23323800       0.33524300       0.50351800 
I       8.86145922      11.27803658      21.47927250       53      -0.40660900       0.14198800       0.15179100 
I       8.30037540      22.87502278       2.55768747       53       0.48677700       0.29023000      -0.23711000 
I       8.64658702      22.45169344      22.53139991       53       0.06887600       0.02134900      -0.00368600 
I      13.57698818      11.73407626       1.92374235       53      -0.46129300       0.01498900      -0.00195700 
I      13.26702107      11.67400248      21.99020745       53       0.22979300      -0.24891500      -0.02376000 
I      13.66884716      23.57901424       2.39309197       53      -0.47505700      -0.45057600       0.01584900 
I      13.68895257      22.40553520      22.19226271       53       0.25612600       0.00206100       0.04251500 
I      18.01810981      11.51449115       2.12382663       53      -0.01734000       0.51975200       0.09954900 
I      18.19754599      11.19984055      21.97760048       53       0.10515100       0.38632500       0.02559300 
I      18.13140712      22.75146381       2.62180261       53      -0.07814500      -0.25276300      -0.59626000 
I      18.34159482      22.46216509      22.08376757       53      -0.01313600       0.27350100       0.40402400 
I       0.99463122       6.31143148      12.44056720       53       0.05335000      -0.64189800      -0.36033500 
I       1.32459621       5.91406773      32.22223447       53       0.08548100      -0.30626000      -0.10643700 
I       1.36141284      17.35198083      12.03643233       53      -0.08986200      -0.21873400      -0.55272600 
I       1.27361958      17.09293962      31.44124296       53       0.31852700       0.07762200       0.36883100 
I       5.93514088       5.81024594      11.84040260       53       0.06220400       0.13279900       0.48867100 
I       6.68211550       6.22764611      31.54405542       53      -0.35108800      -0.11281700       0.25631900 
I       5.77416171      17.50496855      11.44448133       53       0.33872400      -0.02100800      -0.27731800 
I       6.37927252      17.33746274      32.09957831       53       0.07527200      -0.01971400      -0.00389400 
I      11.27263185       5.88490982      12.05114620       53       0.22798300       0.19034000       0.06655500 
I      10.94232906       5.94447234      31.44374142       53       0.73046600       0.90415000       0.59024000 
I      10.87724720      17.64601476      12.06854924       53       0.17786100      -0.16969700       0.44225500 
I      11.71969409      17.27580041      31.35900049       53      -0.29383800      -0.17598300       0.31281100 
I      15.64794328       6.09722371      12.57827502       53       0.11540200      -0.21184700      -0.74354000 
I      15.78499174       5.99906125      31.96440243       53       0.10283500       0.06769400       0.08299100 
I      15.64754056      17.55148589      12.28243646       53      -0.01217800      -0.21795700       0.38976300 
I      15.79917711      17.17133955      31.36671500       53       0.42451500      -0.15391200      -0.02364500 
I       3.78248297       5.37378418       8.10129740       53      -0.12865600      -0.42437400      -0.18550700 
I       4.41808664       5.12500870      27.96621849       53      -0.51709400      -0.12130800      -0.04299600 
I       4.04207499      16.89110144       7.51213397       53      -0.16845200      -0.27018800       0.24836800 
I       3.97673953      16.76103408      27.70751711       53       0.46380100      -0.32117500       0.34391500 
I       9.02149297       4.97386211       8.36470762       53       0.07218500       0.17715600      -0.14423600 
I       8.85878425       5.06018348      27.87274865       53       0.30275900       0.08376600      -0.37840900 
I       9.20086016      16.60987633       7.44104584       53      -0.03085500       0.18797300       0.46761400 
I       8.66577439      16.64370048      27.75375549       53      -0.10466800      -0.20085600       0.29668400 
I      13.46138312       5.61831236       8.19706283       53      -0.02333900       0.00602600       0.13741700 
I      13.94486840       4.93679594      28.00208158       53       0.07522000       0.15291700      -0.20100600 
I      13.82454333      16.40137862       8.53427774       53      -0.15019900      -0.26238000       0.08640800 
I      13.61051815      16.05863827      27.61059019       53       0.02999300       0.30435300      -0.04247200 
I      18.32981054       5.39789240       7.99135674       53       0.16459300       0.29422300       0.48177500 
I      18.79954462       5.41736584      27.91164682       53      -0.37667100      -0.29687700       0.08762400 
I      18.50805378      16.79952041       7.99978641       53      -0.27583100      -0.34956200       0.26008700 
I      18.85374603      16.39502442      27.35209576       53       0.00838100       0.19478000      -0.01140000 
I       1.25297350       3.73475039       3.77759052       53      -0.10444000       0.09511900       0.11663000 
I       1.40023291       3.29437507      24.06033784       53      -0.35180000       0.11902900      -0.06040400 
I       1.11721231      14.73048355       4.00045822       53      -0.44962000       0.42269000       0.15216600 
I       1.10353617      14.66987721      24.06817002       53       0.21832900       0.19344400      -0.27075000 
I       5.65489162       4.11584113       4.06874458       53       0.65816300      -0.62920200       0.37384700 
I       5.42402537       3.17997308      24.33141591       53       0.69357700       0.20433600      -0.21747100 
I       6.00482304      14.79950027       4.35278363       53       0.25102000       0.33124900       0.00548800 
I       5.85054094      14.48454636      24.18912198       53      -0.08631500       0.05559200       0.08363800 
I      11.53211838       4.46780035       4.27246244       53       0.25948300      -0.80663900      -0.01398600 
I      11.43548360       3.26385685      23.99307704       53       0.06149500       0.02849700      -0.00296800 
I      11.05562637      15.26432769       3.99503829       53      -0.09722200       0.07300200      -0.07950400 
I      10.69086137      14.84313366      24.10079312       53       0.18390700       0.06308400      -0.20737000 
I      16.10316637       3.90585428       3.53461234       53      -0.04149400       0.22383000      -0.11378200 
I      15.86977122       2.90107298      24.27242754       53      -0.06673600       0.25862400      -0.29487400 
I      15.86956834      14.71904213       4.40807248       53       0.07109000       0.17438600      -0.71929000 
I      16.18711708      14.47251558      24.13072806       53      -0.07405500       0.54597100       0.02380300 
I       3.97960622       7.52437270      16.09944352       53      -0.37164700       0.45517600       0.00741500 
I       3.99729330       9.09927106      35.90552029       53      -0.32654700      -0.12033800      -0.18250300 
I       4.21422067      20.19661158      15.94537850       53       0.01642900       0.11969200       0.26933700 
I       3.78105977      19.53928860      36.07105006       53       0.04977300       0.44643700       0.13476400 
I       8.05228160       8.20842614      15.66609597       53      -0.06252500      -0.00786700      -0.03526500 
I       7.92081842       8.98480213      36.17172823       53       0.51514400      -0.05141800       0.13958700 
I       9.12547504      20.27032295      16.49068841       53      -0.40850000      -0.20967000      -0.19310200 
I       8.79803286      20.57429597      36.18862813       53       0.01849500      -0.10242800       0.23830300 
I      13.53408313       8.17892739      16.08831860       53       0.33448900       0.50918900      -0.08107200 
I      13.36298025       9.10650069      35.63681288       53      -0.06250000      -0.14664800      -0.07440200 
I      14.15224622      19.80577448      16.36190528       53      -0.05099600       0.21595800      -0.30227600 
I      13.13615740      19.81929542      36.46098739       53       0.12149400      -0.08232800      -0.17518200 
I      18.66946204       8.49330917      16.17288303       53      -0.32993900      -0.28054700       0.04649600 
I      18.75583616       9.15778266      35.68957080       53      -0.39286700      -0.17617300       0.22861700 
I      18.63429888      20.57734425      16.13622769       53       0.14010900      -0.47591900       0.20068400 
I      18.41374300      19.64826963      36.31302398       53      -0.14481800       0.21703000       0.21206100 
I       0.92454126       9.00160059       6.13919248       53       0.16651000       0.19236500       0.10440200 
I       1.45118520       8.28356070      25.93707188       53       0.00401500      -0.03158200       0.11405800 
I       1.47715688      20.95748349       5.89392581       53      -0.05620900      -0.41985900       0.01296900 
I       1.97827344      20.16919844      25.89472475       53      -0.18725600       0.01403600      -0.36185800 
I       6.72105831       8.95615142       6.10038560       53       0.14424200      -0.40043800       0.02252500 
I       6.48941098       8.67267535      25.54902134       53      -0.11021600      -0.01626400      -0.46934700 
I       6.50356997      21.02226407       5.55679814       53      -0.13820200      -0.17366600       0.25223200 
I       6.31076705      20.27106650      26.19756165       53      -0.09959300      -0.12608100      -0.03374000 
I      11.08706566       9.12175929       6.11549508       53       0.14282700       0.29620400       0.48816900 
I      11.62664421       9.00598787      25.09020728       53      -0.02820100      -0.26251100       0.69238900 
I      11.77421606      20.40607703       6.23502587       53      -0.06027600       0.60042500       0.39530600 
I      11.04998326      19.89126404      25.30231423       53      -0.10042100      -0.28578400       0.08755500 
I      15.90717620       8.75472306       6.29128347       53      -0.02926700       0.16599100       0.13271700 
I      16.11677353       8.78051519      25.98078643       53       0.30860600       0.11165500       0.25435800 
I      16.05344657      19.79103829       6.17494703       53      -0.07992300       0.09149200       0.13752600 
I      16.19235747      20.48049138      25.60236863       53       0.29914400       0.41866200       0.00453100 
I       3.81244631       2.61215770      14.04196980       53       0.04849200      -0.35198600      -0.16746000 
I       4.16819025       1.76584391      33.93279968       53      -0.00656400       0.41884300      -0.37549200 
I       4.30074391      14.84962582      13.95718829       53      -0.38245800      -0.62500000      -0.06648900 
I       4.04007865      13.81545025      33.69106718       53      -0.58762100       0.45524200      -0.06981000 
I       8.52903329       2.25989417      14.14304257       53      -0.02674500       0.27598000       0.51785300 
I       8.44892005       2.09220373      33.96020774       53       0.28483900      -0.07229200      -0.18546200 
I       9.15474961      14.46097982      13.90065578       53      -0.17556000      -0.11284200      -0.26950300 
I       8.43131616      14.01635519      34.19812711       53       0.58892700       0.25416200      -0.44165000 
I      13.68172395       2.65843969      14.67817805       53      -0.17376900      -0.34900800      -0.67878700 
I      13.52891476       2.51966472      34.30886509       53       0.16814600      -0.00677000      -0.34999400 
I      13.52909127      13.44985751      14.66086731       53      -0.31152800       0.44226400      -0.25619800 
I      13.73889248      14.04791317      33.82083529       53      -0.25863700      -0.32896500       0.05665400 
I      18.65946310       2.35242772      14.05354816       53      -0.41567800       0.48230100      -0.21039500 
I      18.35228152       2.35724105      33.96880377       53       0.20499000      -0.08341700       0.17463600 
I      18.95288738      13.99630760      14.23814965       53      -0.32528500      -0.06327200      -0.15126900 
I      17.98091989      13.69264194      33.78296673       53       0.33818500       0.04120300       0.10495000 
H       4.03055344       0.00942885       6.51880930        1      -1.50662600      -0.06549400       1.06451200 
H       4.28586165       1.22747047      27.36825312        1       0.88176100       0.39124800      -0.13059500 
H       4.01264117      10.94398152       6.77112199        1       1.74079500       3.47695900      -0.92107400 
H       2.59666477      11.98442811      25.14107436        1       0.91442900      -0.58836700       0.68664400 
H       9.19961955       1.00434410       5.37086981        1      -0.89467700       0.14570500      -0.38314100 
H       9.38371487       2.16856471      26.07622117        1       0.28089400       0.92785400      -0.09927400 
H       8.25397269      11.46844247       6.09046477        1       0.43624000       1.59702500      -0.33844900 
H       8.77850465      13.45243408      25.91559907        1       0.40455000      -1.84675300      -0.35640900 
H      13.25510694       1.11554261       5.53615206        1       1.07380200      -0.11412400      -0.45552000 
H      13.33642123       0.10579379      27.47762368        1      -0.25719900      -0.55832800      -2.02600600 
H      14.40924137      12.11242102       5.57503705        1      -1.65494900       1.24246300       1.67248900 
H      14.45672442      12.02547377      25.40213726        1       0.02501400      -0.13170100       0.48861600 
H      19.18368059       1.09651957       7.02273169        1       2.42078800       0.41858000       2.50761700 
H      19.25136033       0.11239855      26.14400032        1      -0.55552600       0.26027300       0.07775500 
H      17.82744322      12.19448293       5.58573186        1       2.55844900       0.02164800      -4.87768600 
H      18.83413464      13.35681675      26.66841866        1      -1.24415800       0.27755200       0.10425100 
H       2.81859416      10.33652948      12.55404202        1       0.52768700       0.97085400      -0.29140200 
H       0.65144961      11.56307482      31.91197723        1      -0.32685200       0.97290100       0.02883600 
H       1.57061759      21.68608429      12.40465643        1       0.01419500      -0.62749000      -0.66646000 
H       1.80880780      20.12986407      32.53945759        1       1.01293400      -0.50713200      -0.33593500 
H       4.99105822      10.76518138      12.78511825        1       1.01568700      -0.64282900      -0.68825500 
H       6.91342098      10.28705010      31.70556512        1      -1.10800000       0.03814000       1.65858000 
H       6.34130150      21.40922820      11.85159448        1      -0.34061500      -0.78206000      -0.09711400 
H       5.47064922      21.39766607      34.36853310        1       0.78198800      -0.10823900      -0.79465300 
H      10.44230501      11.08215901      12.87021016        1       1.17803000      -0.67495700      -0.62610100 
H      11.84816986       9.96320396      32.54990388        1       1.02290000      -1.70697000       0.56377900 
H      12.08819817      21.58151082      13.23859251        1       2.07430200      -0.70022500      -0.52346300 
H      10.36158110      21.89987717      32.55825441        1       1.13818800      -0.13057100      -0.77288200 
H      16.30626037       9.66562673      12.69013796        1      -1.21107900       0.24938600      -0.76132600 
H      16.00277933      10.23901319      31.92552150        1       1.15913100      -0.56479300      -0.92556700 
H      15.03318959      22.23613347      12.96137935        1      -0.63305500       0.26574200       1.25765200 
H      16.66539849      20.10505794      32.87506569        1      -2.70221000       1.62604200       0.05716900 
H       3.11827221       8.64691670       3.04983471        1       0.92031900      -2.08645700       0.53096900 
H       2.66944390       7.94210154      23.11238220        1       0.33454400      -1.63836300      -2.01748700 
H       3.60998326      17.54044820       4.79058035        1      -0.04006000      -0.17060600      -0.17107500 
H       4.72485129      17.26905465      22.47519607        1      -0.23654100       1.55922700       1.43718700 
H       8.74250055       6.26199166       3.02107344        1       0.23799200       0.48306300      -0.01268600 
H       9.85680153       5.99385941      22.90058971        1       1.68345300      -0.37851800      -0.88322800 
H       9.51698672      18.82345098       4.91265627        1      -0.65074300      -0.06484800       0.01279800 
H       7.09954104      17.89991803      22.55540568        1      -1.23344500       1.01627700      -0.82479900 
H      13.08119012       8.73038456       2.42738173        1       1.39425700      -0.80847100       0.85044000 
H      13.43915153       7.11327297      22.79553745        1      -2.26094000       1.79278600      -0.36170200 
H      12.86849076      18.88781870       3.60761565        1       0.63668400       0.67404400       0.99149300 
H      15.35593408      18.23261988      23.95153635        1       1.04266000      -0.94539600      -1.27465800 
H      19.69584194       7.52380971       3.68182408        1       4.13904700       0.03584400       0.39009300 
H      19.64968168       7.79900523      23.23312418        1      -1.12067100      -0.31683400       0.43752600 
H      19.24279474      18.12897154       2.94096729        1       0.86111800      -1.03700000      -2.75239800 
H      20.52731202      18.70638924      23.15502554        1       0.20841400      -1.16820000       0.79899600 
H       2.50480681       4.07385107      16.39037847        1       0.72311800      -0.12967200      -0.34040300 
H       1.61632341       4.50571760      35.10900238        1       0.85073400      -1.65866100       0.43322900 
H       0.57721075      17.54410308      17.26832631        1       0.54423300       0.31773200       0.77297900 
H       1.64904287      14.73678703      36.53597284        1      -0.21074700      -0.32013400       0.59945500 
H       6.95511586       3.07200037      17.05375742        1       0.81963000       1.47365900       0.12392900 
H       7.25167971       4.95708495      34.79891658        1      -0.61085900       0.86288100       2.18341800 
H       7.44175288      16.93269387      15.37411822        1      -0.64367600      -0.45626000       0.80443900 
H       6.36741925      16.72223633      35.72303382        1      -0.47223800       1.00185800       0.96115700 
H      10.61701002       5.86441489      17.63615683        1      -0.13740400       0.15159700      -1.35634000 
H      12.21290646       5.65812857      34.71890782        1       0.22512600       1.02665700      -0.32420100 
H      10.45271478      16.01863643      16.61132084        1      -0.65491500      -1.80802600      -0.48083800 
H       9.90371043      16.60682806      37.05799111        1      -1.74773000      -0.63222500      -0.57274400 
H      17.05412767       5.47518764      15.35954738        1       1.78199800       0.55258400       0.20938600 
H      16.17801690       4.72676648      35.57239341        1       0.39163100      -0.22510000      -0.85329600 
H      17.39073191      17.17443549      15.77892867        1      -0.87303700       0.10197700       1.05812100 
H      15.07432959      16.54946781      34.79624972        1       0.76322800      -0.61343700      -0.18740700 
H       4.12248545       1.41222007       5.77370624        1      -0.06498800       1.29560000      -2.93010700 
H       3.69203604      -0.42453039      27.58067757        1      -0.20144600       0.42485600      -1.65422600 
H       4.82955866      12.67857786       7.35391194        1       0.01081800       0.32804300       0.49495900 
H       2.67109332      11.24085781      26.88105615        1       0.99317400      -0.24200700      -1.90208000 