768
Lattice="19.0765178935 0.0496745474847 -0.0423963640214 0.0489043377498 22.2500417229 0.0494297521426 -0.0840304791321 0.0931874170906 38.4029529244" Properties=species:S:1:pos:R:3:Z:I:1:forces:R:3 energy=-99807.5471532 stress="2688.816285 1094.878544 -200.195008 1094.878544 -1186.049211 -1601.622135 -200.195008 -1601.622135 -1063.710497" pbc="T T T"
I       3.51794491       4.13213443      19.79084662       53      -0.03980900       0.28892000      -0.22994500 
I       3.55234562       4.26417067      38.25420294       53       0.05559300       0.24300500       0.18345400 
I       3.44668956      15.08247292      18.96975130       53       0.09583400       0.22344400       0.18633400 
I       3.33078493      15.95156305      38.17767354       53       0.60929900      -0.60633200       0.38848500 
I       8.45720938       4.27658856      19.21872906       53       0.23664400      -0.48368300       0.61270400 
I       7.74839551       4.77218469      38.25028422       53       0.45777800      -0.30744700       0.17499400 
I       8.30323908      14.94035330      18.96098046       53      -0.10461100      -0.08193300      -0.10018400 
I       7.99917640      15.39940925      37.81903444       53       0.12048000      -0.17056800       0.59247600 
I      13.22334384       4.38108134      19.75982329       53       0.27432200      -0.00191100      -0.01968300 
I      12.73150522       4.20888075      38.87354809       53      -0.04095800      -0.06112400      -0.00744400 
I      13.01168145      14.89691208      19.15587139       53       0.00506900      -0.00875500      -0.38892000 
I      13.03805765      15.32009954      38.09503223       53      -0.29875300       0.38408800       0.16990300 
I      17.66229838       4.16848057      19.16413273       53       0.21312200      -0.13950900       0.27658500 
I      17.36371175       4.36131561      37.99095440       53      -0.04233200      -0.14693800       0.34969600 
I      17.60669999      15.27556768      19.05774826       53       0.38243400      -0.06066800      -0.08117300 
I      18.46792682      15.64317864      37.71441826       53      -0.71627100      -0.03532400       0.13583700 
I       0.99412981       7.64579840      -0.38389482       53       0.04035100       0.38778900      -0.14606100 
I       1.17920404       7.89466272      19.40477651       53       0.02608500       0.26960600       0.26842400 
I       1.03553505      19.67866667      -0.48670986       53      -0.00297100      -0.09478200       0.12179200 
I       0.81140700      19.05069099      19.40352566       53      -0.09498700       0.02088900      -0.28043500 
I       5.94013212       8.12300204      -0.16055987       53       0.05309000       0.33986500       0.16594200 
I       6.18334028       7.09044434      19.14659106       53      -0.69151000       0.40543100      -0.05346500 
I       5.74870615      18.95494815       0.58316520       53      -0.01395800       0.34689300      -0.24831100 
I       5.79605713      18.84256420      19.26385897       53      -0.24107500      -0.30449600       0.52241100 
I      10.81385314       8.03861930      -0.09197439       53      -0.19558900       0.12460100      -0.16894200 
I      10.75035064       7.86732127      18.88222901       53       0.23077900      -0.23193800       0.03898800 
I      10.93955456      18.59753202      -0.18713310       53      -0.20616300      -0.17026900       0.22841600 
I      10.50861425      18.59351778      19.02153348       53       0.14606200       0.26918500       0.06805700 
I      15.15673049       7.55118102      -0.35499106       53       0.26631300       0.08280800       0.06655300 
I      15.65200819       7.93909705      19.46412445       53      -0.44447100       0.05646900      -0.71734400 
I      15.87268820      19.58531705      -0.66838283       53       0.00149800      -0.17786300       0.28514800 
I      15.33548781      18.98550975      18.95385652       53       0.58525700      -0.34482200       0.08840500 
I       3.18192150       9.21529677       9.55703903       53       0.35201400      -0.08707600       0.03936200 
I       3.65420735       8.24349310      28.44313003       53      -0.07489800       0.99819100       0.59009500 
I       3.73917024      20.25916798       9.73599238       53       0.13439500      -0.21022000      -0.18081000 
I       3.74674596      19.49241821      28.53881615       53      -0.00859700       0.08989800       0.18881700 
I       8.36257508       9.32743990      10.31496521       53      -0.18715200      -0.10696000      -0.37645800 
I       8.61519393       8.55880144      29.37165170       53      -0.03584700      -0.29369300      -0.42775900 
I       8.47295888      20.24982595       9.49137019       53       0.00085100       0.37226800       0.06109300 
I       8.13606476      19.59058015      28.24848589       53       0.15822800       0.45769300       0.28487100 
I      12.91678843       8.90143531      10.14548822       53       0.36344900      -0.56726400      -0.77007600 
I      13.44253717       8.56013587      28.85006646       53      -0.05096500      -0.00253000      -0.10246600 
I      13.18071661      19.83150156       9.40514153       53      -0.14454400       0.66574700       0.53063500 
I      13.11665984      20.19271201      28.88579862       53      -0.22200300       0.01702300      -0.09832000 
I      17.45471691       8.56788872       9.22190923       53       0.42777000       0.44578900       0.30914500 
I      17.89516443       8.70911374      28.93757881       53      -0.64176000       0.43932300       0.13073500 
I      17.84765324      20.13789776       9.66871347       53       0.03586600       0.72289900       0.45718500 
I      18.33462780      20.03309351      29.21616685       53      -0.11746300      -0.46714400      -0.49503200 
I       0.85591199       0.94419056       9.95415479       53       0.38278000       1.11539200      -0.16578400 
I       0.99029368       0.88467544      28.75116417       53       0.48591800       0.56322400       0.35863100 
I       1.69693624      12.68777542       9.71612117       53      -0.58797900       0.18329000      -0.02885700 
I       0.99571202      12.56005594      27.86166646       53       0.05387700      -0.06882000       0.24755300 
I       5.89804723       1.57896379       9.43392389       53      -0.09058300       0.08886600       0.37749900 
I       6.03439624       1.68886197      28.62477215       53       0.19974200      -0.15509400      -0.00884100 
I       5.68778395      12.75845062       9.46334311       53       0.12763400       0.07887600       0.01682000 
I       6.09496120      11.56227709      28.87022725       53      -0.14294300       0.68135200       0.11700400 
I      10.38039224       1.82391536       9.66959314       53       0.06293400       0.03450900       0.50285200 
I      10.92118993       1.60377668      29.07040416       53      -0.34847800      -0.10761700       0.05190600 
I      11.25932793      12.61286705       9.30528792       53      -0.31722000       0.04029400      -0.08476400 
I      11.37200742      12.80513190      28.11583368       53      -0.41307600      -0.03076200       0.29761500 
I      14.93292087       1.20900638      10.58209067       53       0.21432300       0.18312600      -0.38323400 
I      15.47947026       1.27867951      28.45599373       53       0.05539200       0.17785900       0.45696200 
I      15.47643719      13.00188168       9.00252583       53       0.73722500      -0.12707000      -0.45156300 
I      15.36790528      12.51019331      28.23990710       53       0.38496000       0.22004900       0.25082000 
I       1.49876048       1.20466276      17.22900366       53      -0.28365100      -0.49022300       0.47898700 
I       1.40515512       1.48857261      36.30588178       53       0.21617800       0.04237700       0.11332100 
I       1.40534319      12.06299501      17.40230384       53      -0.10186000      -0.77953400      -0.23147400 
I       0.84901095      11.71310585      36.14849928       53       0.12788200       0.27140200       0.37451400 
I       5.67688359       0.57608006      17.24248333       53       0.12813500      -0.22049000       0.19499700 
I       6.23769877       0.71799270      37.01782227       53       0.26328900       0.67910600      -0.18947400 
I       5.96955632      11.44582516      17.17791109       53      -0.12415300       0.14344000       0.16191500 
I       5.88435660      11.89245127      35.78982235       53      -0.10888000      -0.39757200       0.38763600 
I      10.29672298       0.79170794      17.43353216       53       0.02140300      -0.14222900       0.10738400 
I      10.67032346       0.92721510      36.67673080       53      -0.17481900      -0.04587700       0.04157100 
I      10.67012942      11.71397457      16.73342146       53       0.04746500      -0.08854300       0.07237800 
I      10.10236245      12.55107712      35.94837112       53       0.11050900      -0.81292200       0.29506200 
I      15.01113995       0.97011001      17.63779696       53       0.14317000      -0.20517100      -0.16692100 
I      14.64713823       1.51712411      36.26432529       53       0.30511600      -0.31892400       0.47189000 
I      15.43651365      11.73415924      16.91621492       53      -0.49730600       0.65760300      -0.13744100 
I      15.42676065      12.67815974      36.24624128       53       0.21783600      -0.47429300       0.21977300 
I       3.51238626      11.24010353       1.82669369       53      -0.06849000      -0.35201000      -0.60630700 
I       3.45800786      11.26865005      21.54207469       53      -0.05185000       0.02693800      -0.29784300 
I       3.64531212      22.95445226       2.04045077       53      -0.14141600      -0.33739500       0.07623800 
I       3.98403623      22.32502373      21.34585132       53      -0.14559800       0.25450900       0.08906900 
I       8.22844614      11.50413421       1.77162270       53      -0.52581700      -0.54286900      -0.14244200 
I       7.74948714      11.01311954      21.42193391       53       0.19500200      -0.25913500      -0.56340100 
I       7.84562106      22.42809053       2.46321930       53       0.27276900      -0.07623500       0.09611100 
I       8.55044655      22.59184866      21.61060445       53      -0.13465900      -0.18146100      -0.64779600 
I      13.39829589      11.40140077       1.31347528       53      -0.03812900       0.16141600       0.63433100 
I      13.05907821      10.68420714      20.70199976       53       0.07267200       0.37886000       0.07645600 
I      13.07642783      22.28242138       2.23594274       53       0.01766000      -0.12969100      -0.07147800 
I      13.47102001      22.25080596      21.52245822       53      -0.25299800       0.12190000       0.02017800 
I      17.87578480      11.50578310       1.43053223       53       0.02038000       0.20328100      -0.03898000 
I      17.78248295      11.05747227      21.27186839       53       0.34753300       0.15141600      -0.15403300 
I      18.01057548      22.63059001       1.60228801       53      -0.08492800      -0.04220200       0.35516700 
I      17.95441386      22.32347734      21.43298055       53       0.01771100       0.11506200      -0.19159700 
I       1.00917377       5.64046780      11.90642152       53       0.39048100       0.18027100      -0.03960300 
I       1.31274189       5.73375572      30.63409212       53       0.03367800      -0.23048000      -0.15540000 
I       1.41530019      16.89222398      12.08992549       53      -0.35756300      -0.11074300      -0.33008300 
I       1.42366702      16.38408259      30.27697453       53      -0.05676700      -0.51153900       0.15223900 
I       5.69952617       5.95859925      11.68927014       53      -0.22825600      -0.36145900       0.18970600 
I       5.81645973       5.27622327      31.31477145       53       0.16797100      -0.39120900      -0.52356400 
I       6.60427582      16.31899389      12.10481422       53      -0.43171600       0.60739100      -0.37898800 
I       6.04400894      16.48016177      30.30948853       53      -0.01585100      -0.44867900      -0.00600100 
I      10.62162710       5.82970156      11.95694091       53      -0.36614000      -0.13911200      -0.41925200 
I      11.08031785       5.53268520      31.38855435       53      -0.03313300      -0.27462400      -0.07931000 
I      10.88266750      16.59176158      11.42778991       53      -0.17093200       0.18054200      -0.42180300 
I      10.79326347      16.59765757      30.76167926       53       0.10135400      -0.21533800      -0.11821600 
I      15.35194781       5.31829125      11.88026823       53       0.20794400       0.17236100      -0.08887500 
I      15.80484606       5.31379637      30.51955975       53      -0.05124700       0.01904200       0.16505000 
I      15.77255895      16.88422236      11.31443773       53       0.18266400      -0.14374700      -0.31688400 
I      15.79693499      16.56794280      30.74025668       53       0.04218800      -0.10030400      -0.05270900 
I       3.44777721       4.49515199       7.88922050       53      -0.12351300       0.48061200      -0.19053300 
I       3.36366811       4.84659352      26.66715475       53       0.27032100      -0.15706200       0.14801700 
I       3.69683955      16.14278105       8.07354542       53      -0.18536900       0.08767900       0.08421900 
I       3.42078305      15.50394979      26.31344140       53       0.10228100       0.35125600       0.24990000 
I       8.37282763       5.30570917       7.35692099       53      -0.18019600       0.29228800       0.87492500 
I       8.90460571       4.49051182      27.21445643       53      -0.55463000      -0.05567900      -0.11268000 
I       8.44648715      16.19530757       7.82551400       53      -0.32679800      -0.30970900      -0.32606500 
I       8.39900381      15.50954128      26.58932476       53       0.05261900       0.01026500      -0.02528200 
I      12.71406803       4.77715921       7.67583558       53      -0.07057700       0.07343200       0.20275800 
I      13.18598270       4.46961964      27.28176122       53      -0.02883900      -0.00926900      -0.34691100 
I      13.04035136      16.29220274       7.16868631       53      -0.05281200       0.08826500       0.23094200 
I      13.56562047      16.28741032      26.99366496       53      -0.22303700      -0.11005300      -0.16482900 
I      17.91226229       4.73256267       7.79866015       53      -0.18541000       0.03187600       0.36562800 
I      18.25127001       4.52431945      26.68209423       53      -0.19840200       0.53553700       0.28344700 
I      18.14644386      16.51803341       7.09330626       53       0.16967300      -0.12616400       0.73599400 
I      17.69190668      16.13383806      26.83701883       53      -0.05793200       0.07267300      -0.27323900 
I       0.96146853       4.57188637       3.76169738       53      -0.14660000      -0.88992100      -0.36040300 
I       0.84731430       4.22105086      23.17534921       53       0.38582400      -0.76149900      -0.31209000 
I       1.30222564      15.26777901       3.25246137       53      -0.63560900      -0.91569900       0.37259500 
I       1.16547361      14.88537983      23.11392150       53       0.25469500      -0.42191600      -0.27538700 
I       6.12706223       4.29645877       4.56243190       53      -0.34693000      -0.67329600      -0.48917100 
I       5.95721605       3.81936857      23.41101946       53       0.16252900      -0.41536300      -0.31939500 
I       5.31655281      14.11477504       3.39749863       53       0.34039900       0.51789400       0.16629100 
I       5.82686751      14.58671458      23.10811806       53      -0.20213300      -0.14428700      -0.07272600 
I      10.27715030       3.67087333       4.07148190       53       0.31247900      -0.24259800      -0.30253200 
I      10.81806840       3.54640087      23.13881102       53      -0.07018200       0.12748600       0.51690300 
I      10.19908248      14.88832434       3.54331207       53       0.15203300      -0.66413400      -0.00273500 
I      10.71453788      14.32706932      22.88005438       53      -0.11035200      -0.48017300      -0.00574200 
I      15.96340677       3.74401340       4.35676799       53      -0.31394900      -0.12388000      -0.36672400 
I      15.63540688       3.73389619      23.53841055       53      -0.11982700      -0.06652700      -0.36857400 
I      15.47562717      14.86696943       4.22116530       53       0.26972900      -0.23414100      -0.56647700 
I      15.71040481      14.81582312      23.00792213       53      -0.36752700      -0.27430300       0.02867500 
I       3.04782540       7.89121469      15.94549889       53       0.32811800       0.36290400      -0.34548500 
I       3.39819421       8.42142050      34.23269908       53      -0.13159000      -0.14097600       0.56589600 
I       3.05151126      19.47642790      15.83937016       53       0.15660700      -0.36211000      -0.57023000 
I       3.97463350      19.41690283      34.94002030       53       0.22440500       0.12016900      -0.07128800 
I       7.97348383       7.78782945      15.25430531       53       0.48236300      -0.31541600       0.42651800 
I       8.26063872       7.99864501      34.42499279       53       0.03414900       0.70458700       0.17692400 
I       8.08446668      19.67471910      15.65801960       53      -0.11010900      -0.32869300       0.02672200 
I       8.20601254      20.47266932      34.52720082       53       0.30450600      -1.06460700       0.13061500 
I      13.49767384       8.32759323      14.58424872       53      -0.50538100       0.15113500       0.42528300 
I      13.00972309       8.17714361      34.48976305       53       0.15185800      -0.27118700      -0.28352600 
I      12.37643455      18.90950876      15.69076347       53       0.30171800      -0.17232800      -0.69301100 
I      12.70815115      19.01001814      34.56997632       53      -0.21873600       0.11050000       0.28340600 
I      17.34042634       8.39582645      15.37169463       53       0.28310400      -0.20055200      -0.49202300 
I      17.69425413       8.74214021      34.03926300       53      -0.09990800      -0.03343100       0.04333800 
I      17.96977825      20.08391541      15.12019429       53       0.71853300      -0.28403500       0.60537200 
I      18.05084631      20.13353025      34.53524424       53      -0.06448700      -0.13206700      -0.31896500 
I       0.88331911       8.39125594       5.87516682       53      -0.02540800       0.10733600       0.32372300 
I       1.36237265       8.74364879      24.64713045       53      -0.06000100       0.05885500       0.23345400 
I       1.19085968      20.31849502       6.41190350       53       0.38409200      -0.52587400       0.14668000 
I       1.50229409      19.62108404      24.81842948       53      -0.26328600       0.06854200       0.18163400 
I       5.89190844       8.96154053       6.16157538       53      -0.03671100      -0.26278200      -0.19516900 
I       6.59186191       8.69169247      25.31821499       53      -0.12968300      -0.68834500      -0.30755900 
I       5.55531683      19.41835270       5.75522308       53       0.34727800      -0.19669100       0.44167700 
I       6.33667172      19.68965659      24.23169584       53      -0.28444900      -0.34261300       0.13658400 
I      10.55347250       8.76515097       5.67571335       53       0.06464800       0.27034600       0.51863200 
I      10.83384078       7.92349284      25.22247712       53       0.12770300       0.14006800       0.25279300 
I      11.11014507      20.09810757       5.51213832       53      -0.19667100      -0.15916900       0.40233400 
I      10.61374290      19.77075151      24.84201541       53      -0.05786100       0.00677600       0.17344300 
I      15.27129272       7.89142565       5.74840961       53      -0.20118000      -0.08897800      -0.04878600 
I      15.26432899       8.38381357      24.88408836       53       0.21510700       0.16100500       0.35830000 
I      15.64567834      19.94214706       5.17906340       53      -0.06345100      -0.21409600       0.40663800 
I      15.35075667      19.87284510      25.29134323       53       0.21132200       0.13731700      -0.25249100 
I       3.38513846       2.48093611      13.80169174       53       0.02513500       0.05565600       0.05195600 
I       3.42453060       2.10468865      32.71332405       53      -0.41881300       0.48536600      -0.30733800 
I       3.82333506      13.21167228      13.86467381       53      -0.26440200      -0.36448900      -0.14570200 
I       4.10215794      13.28406005      32.31148155       53      -0.47093000      -0.16751800      -0.07755500 
I       7.50000785       2.34395620      13.35610054       53       0.77329800       0.46565800       0.24954000 
I       8.23907484       1.76946233      33.16572475       53       0.38966400       0.97214600      -0.21370600 
I       7.64259118      12.79939413      13.29581620       53       0.62016200      -0.17711700      -0.02492900 
I       8.09887079      12.86396338      32.28948082       53       0.18938900      -0.08534800       0.53740500 
I      12.38563129       1.99640154      13.91796157       53       0.03184200       0.24717400      -0.24608400 
I      13.82852768       0.95312559      32.51070217       53      -0.64889200       0.46924700       0.00634200 
I      13.38754480      13.85026969      13.17491715       53      -0.10565300       0.01590100       0.28281900 
I      13.40146728      13.60947367      32.86712121       53      -0.32155900       0.12536100      -0.33544700 
I      18.16885955       1.89979794      13.79377072       53      -0.41369400       0.38465900      -0.19089400 
I      18.19583978       1.66941268      32.43781486       53      -0.11117200       0.31771800      -0.03937800 
I      18.04120973      13.31419476      13.06451246       53      -0.02208400       0.43367100       0.23894900 
I      18.02472286      13.50018548      32.67813323       53      -0.14569100       0.01454700      -0.41803300 
H       3.29455821       1.12579487       4.85103864        1      -0.41129400       0.21616500       1.43730600 
H       2.53186548       0.72103771      24.79376386        1       0.08055200      -0.90059900       1.35729900 
H       2.57289258      11.67186480       4.56340810        1      -2.17357900       1.31462500      -1.54524100 
H       3.53856543      10.92732076      26.79292781        1       0.91480700       0.56903600      -1.77720700 
H       8.50529773       2.03317657       5.66738931        1      -0.20769500      -0.89667900       2.14007700 
H       7.25066488       1.92711849      24.65289508        1      -1.23638100       0.48867600      -0.42397300 
H       7.18286951      13.45008304       6.60946727        1       1.97631100      -0.26328600       0.69779900 
H       8.30356448      11.36565269      23.93606069        1       1.65462600      -0.26790900       0.90030700 
H      13.39230338       0.14580050       5.52102260        1      -0.50050000      -2.41762000      -1.95679900 
H      12.07163151       0.32548028      24.84745862        1       1.26670200       0.31197500       1.67589500 
H      13.37158135      11.88906792       4.85673262        1       0.07606700      -0.24258400       1.21448600 
H      13.60472404      13.10493454      25.28274156        1      -0.33687400      -0.24920400       0.10350800 
H      19.43099249       1.00871006       6.37613950        1       0.95940100       0.15330100       0.18232000 
H      16.78226808       0.98605454      24.56318953        1       2.44550100       0.79512400       1.44155700 
H      18.01419368      10.35058393       4.51506599        1       1.34162500      -0.24767900      -0.49709900 
H      17.45698574      12.91333741      25.30612250        1      -1.38850900       0.52187800       0.00259200 
H      -0.56726843       9.76963284      12.70116552        1       0.57795600      -0.41531500       0.29359300 
H       1.73766680      10.62444822      30.97089967        1      -0.12080100      -0.86366100      -0.50484900 
H       0.43615962      21.08413823      12.00481234        1      -1.63119200       0.43015900      -0.32924500 
H       1.92687569      18.97529303      33.04414605        1      -0.10111500       0.34079900       0.70662800 
H       4.00028328       9.55981039      12.57477550        1      -1.08498600      -0.39395100       0.07896900 
H       6.45208675       8.47090896      30.83066378        1      -2.12519300      -0.40084700       2.02342600 
H       4.60680155      20.68178624      13.69823486        1      -2.01408800      -0.60739600       1.74095600 
H       6.08786910      20.65945314      32.02049950        1       1.82977700      -2.59506500      -0.07153800 
H      11.91441320      11.49687892      13.07881508        1      -1.21718000      -1.12116100      -1.16426200 
H      11.53743932       9.87712486      31.10227118        1      -0.60728600       0.92704300      -0.59107200 
H       9.94384950      20.11684934      12.77452949        1       0.25901500       1.33924900       0.22287100 
H       9.44473170      20.26707108      31.03656552        1       1.40646500      -0.39185600       0.60360500 
H      15.53092405      11.76719766      11.43569003        1      -0.17893800       3.21975700      -1.36416000 
H      14.06552540      11.05091156      30.94057390        1       2.21311100      -1.71950800       1.62002800 
H      14.67857951      19.55840250      12.56694802        1      -0.35519700      -3.42525900      -1.98304400 
H      15.72921027      19.08026247      32.15355970        1       0.28543200      -0.05369700       0.80396900 
H       4.58353505       6.36192146       2.86205858        1       4.89855100      -1.74040000      -0.32380300 
H       4.73331198       7.72519966      23.23701077        1       1.08812600       1.83838200       0.42852600 
H       2.12322245      19.45130951       4.04919657        1      -1.03488900       0.70936900      -0.60669900 
H       3.63664378      19.01297858      21.40916873        1      -0.17328800       0.74777600      -0.20913900 
H       8.87673287       7.20261435       2.23162400        1       0.45430300       1.09155400      -1.69441200 
H       7.53480660       6.54982378      21.80129902        1      -0.03512200       0.37205600      -1.72315800 
H       9.18747070      17.40109180       4.21735406        1      -0.41587600      -0.06892700       0.64858200 
H       9.38198847      18.48540580      22.02745210        1      -0.22411900      -1.02867400      -0.63606900 
H      13.55485147       7.63131368       2.14100991        1      -0.06767600      -0.69600000      -0.17051600 
H      13.88896626       7.52118563      21.78455442        1       2.07308900       0.57290300       0.00819200 
H      13.41083021      18.13173127       1.78131500        1      -0.11500700       0.21474500      -1.05792000 
H      12.79096561      17.60757468      23.95534578        1       0.40511300       0.00788800       0.69107500 
H      18.84323788       7.97745728       2.66387386        1       2.14302700       0.66599900      -0.65588400 
H      17.97771519       7.33988881      21.40655161        1       1.37588300      -0.08604300      -0.63149000 
H      18.94968007      17.91452914       2.14556251        1       1.31762100      -0.61210900      -0.52378300 
H      17.30013363      17.69251369      21.10984373        1      -0.12413200       0.30145300       1.06597500 
H      -0.03657601       5.13811790      14.80774587        1       0.39369700      -0.85491800       1.75900600 
H       0.20651373       5.20713924      35.01862548        1      -0.34176300       0.67701800      -1.01371100 
H       0.64606864      16.72623383      16.41694786        1       0.28773400      -0.84757500      -0.23064800 
H       1.01905415      15.17374974      34.85198254        1       0.03018600       0.42992100      -0.53444700 
H       6.86163434       3.59527635      16.26835211        1      -0.22481600       0.50710600      -0.69267100 
H       6.74491273       4.26680570      35.25947822        1       0.43485300      -0.12327600      -1.32387900 
H       5.03463813      15.01904704      16.21040228        1      -1.45188000      -1.84472900       0.99252500 
H       6.68640267      15.59183928      33.69885119        1       0.12715200       0.52630100       2.19954900 
H      11.54879046       3.70476754      16.93629411        1      -0.71141900       1.24330900      -0.48994000 
H      11.67989030       4.19160975      35.44564806        1       0.04165800      -0.14294900      -0.15000300 
H       9.74484781      16.87209404      15.65305105        1      -1.25861200       0.86175800      -0.01638400 
H       9.60714048      15.39133100      34.13935345        1      -2.77583800      -2.31396500       0.07150100 
H      15.98122210       4.16333588      16.72009504        1       0.44287000      -0.90864200       0.42126300 
H      15.69162722       5.50067672      33.29560361        1      -0.50672800       0.15248200       0.24421500 
H      16.99021675      15.84064190      15.95992192        1      -1.62866800       1.44072800      -1.61228100 
H      16.47321297      17.07042803      34.43166894        1       1.94627700       2.10127500      -2.41192500 
H       3.83314677      -0.31942011       5.44151486        1       1.13045300       0.04293900       0.13896600 
H       3.66691481       1.73773745      25.16052400        1       1.73057500       0.74004400       0.77119100 
H       2.87668659      10.40640722       5.89995384        1       0.44292600       3.65506200      -0.70593600 
H       4.77188317      12.09753305      26.51340536        1      -0.17321800       1.13631100      -0.61334900 