768
Lattice="19.1864036075 -0.0300194877522 -0.0341346266576 -0.0439008224929 22.1563884668 0.155556255625 -0.0680970382564 0.27506649769 38.6988193326" Properties=species:S:1:pos:R:3:Z:I:1:forces:R:3 energy=-99808.3353745 stress="-904.84315 2925.479689 -1219.668011 2925.479689 827.78836 -958.407079 -1219.668011 -958.407079 -1205.441704" pbc="T T T"
I       3.64829592       4.31907257      19.83720431       53      -0.32114000       0.08270000      -0.16547300 
I       3.53648029       4.59932154      38.60149179       53      -0.07787500      -0.04413600       0.20645800 
I       3.43936401      15.19701774      19.20076254       53       0.06556400       0.38397400      -0.11434300 
I       3.57735733      16.11196731      38.48454175       53      -0.26314800      -0.44984700       0.13478600 
I       8.31489748       4.16592733      19.51417392       53       0.51255400       0.21660600      -0.15590500 
I       7.60353014       4.99366800      38.44325719       53       0.64126500       0.14243100       0.06303900 
I       7.92822161      14.77394241      19.01653348       53       0.37761100      -0.01664400       0.24865700 
I       8.10347847      15.40111561      38.43901790       53       0.11925900       0.02990800      -0.02239100 
I      13.05861034       4.25850794      19.96621242       53       0.32582300       0.10198800      -0.27435600 
I      12.66855625       4.26788065      39.14084432       53       0.38214100      -0.09019200       0.20236800 
I      12.83409597      14.46279285      19.17544092       53       0.06791400       0.70657900       0.16465600 
I      12.76939918      15.35043432      38.43845319       53       0.13489500       0.13898100      -0.02424100 
I      17.58966663       4.39196961      19.41888593       53       0.42090100      -0.30642800       0.23653300 
I      17.22062678       4.70538299      38.37010384       53       0.42504800      -0.24452500       0.25508500 
I      17.40077875      15.29819509      18.99411548       53       0.35548400      -0.06861700       0.17091300 
I      18.48816466      15.65512181      38.12320952       53      -0.60799800       0.22262500       0.15158300 
I       1.04376443       7.65040568      -0.04941871       53      -0.15158800       0.30244600      -0.47208600 
I       1.37965088       7.96231018      19.51785151       53      -0.72527500      -0.27483200       0.45743700 
I       0.55363937      19.60636605      -0.23845177       53       0.61351100       0.18413600      -0.07782400 
I       0.93398334      19.14534133      19.51071460       53      -0.02677300      -0.34880500      -0.02423500 
I       5.90920430       8.32165592      -0.14760633       53       0.04060800      -0.75330800       0.11556000 
I       5.88480883       7.31330571      19.05506860       53       0.87895300      -0.80094500       0.41745800 
I       5.88701960      19.16698636       0.44263475       53       0.43250900      -0.08630300      -0.30434600 
I       5.86263915      19.03725936      19.44776900       53       0.24928800      -0.59425700       0.49538200 
I      10.72906325       8.04081922       0.05732659       53      -0.41775500      -0.25777700       0.05594600 
I      11.03314798       7.93924437      18.94995233       53      -0.18078800      -0.69996000       0.37401400 
I      10.88171387      18.61309868      -0.12716280       53      -0.16599000      -0.02399100       0.17473100 
I      10.65861928      18.55906119      19.20706040       53      -0.26029400       0.37420900       0.65318200 
I      15.26884644       7.87970803      -0.25123874       53       0.00757900      -0.37314200      -0.07326800 
I      15.49461638       7.93784563      19.65153445       53       0.00863300       0.12648000      -0.75403300 
I      15.93229394      19.27160400      -0.25596865       53      -0.45106000       0.17366700      -0.05126200 
I      15.39639171      18.67156268      19.20998105       53      -0.14409500       0.22432200       0.05817300 
I       3.29187883       9.12402791       9.67390559       53      -0.55186500       0.20148100       0.19332700 
I       3.81358333       8.62268084      29.00756508       53      -0.16508400      -0.23961000      -0.24154700 
I       3.52681121      20.00220937       9.66675566       53       0.76600000       0.90832600       0.67850600 
I       3.81714377      19.50410034      28.74640996       53       0.17841600       0.37737700      -0.10874300 
I       8.26644598       9.35145391      10.37494503       53      -0.08671400       0.03289700      -0.24697700 
I       8.59319201       8.63371562      29.34934289       53       0.23187800      -0.05564800      -0.21915100 
I       8.38203632      20.30274367       9.63140651       53       0.00475900       0.05866300       0.00926200 
I       8.22703076      19.57194306      28.87157226       53      -0.03558000       0.14434700      -0.01183400 
I      12.99860641       8.58300028      10.36343866       53       0.26306200       0.13125300      -0.21375700 
I      13.56524301       8.72924691      28.91097747       53       0.18618900      -0.14257000       0.44842900 
I      13.16352035      19.88244681       9.98526941       53       0.08732300      -0.22823600      -0.06394900 
I      13.18882495      20.26652344      29.14938018       53      -0.13573400      -0.16320500       0.01014700 
I      17.86611285       8.95786641       9.50213408       53      -0.32027500      -0.41556600      -0.20726600 
I      18.08342323       9.18212546      29.06042509       53      -0.13810200      -0.53065600      -0.34946000 
I      18.16185918      20.13336816       9.98714375       53      -0.81756600      -0.09466800       0.04004800 
I      18.33767673      19.55608125      29.46301584       53      -0.07610000       0.52045600       0.23068800 
I       0.97760481       1.27283049      10.16420787       53       0.48097300       0.28731900      -0.03384800 
I       1.11465296       1.26247656      28.77673182       53       0.45057300       0.16776700       0.41461600 
I       1.54990449      12.61551801      10.02793469       53       0.11411400       0.15246400      -0.02068800 
I       1.03215994      12.48047738      28.29780074       53       0.06018200       0.25550300      -0.10717500 
I       6.06072051       1.68857967       9.32898185       53      -0.10072300      -0.06310300       0.17123400 
I       6.01371281       1.75748371      28.90499299       53       0.44494500      -0.10955400       0.39868600 
I       5.54328134      12.99605422       9.25895040       53       0.71745900      -0.16081600       0.59445300 
I       5.96114516      11.83214075      29.28605886       53       0.35580200       0.69885900      -0.83630100 
I      10.52545799       2.13567399       9.68494737       53      -0.32836400      -0.53888200      -0.18778400 
I      10.90735489       1.32652053      29.31388361       53       0.12876500       0.31075400       0.84289500 
I      11.41574576      12.61127772       9.40664183       53      -0.63038000       0.02097900       0.25309500 
I      11.04662481      12.81297960      28.41170398       53       0.25963100      -0.16696100       0.43134400 
I      15.02270106       1.19947288      10.55747797       53       0.21669400       0.33449300      -0.15513800 
I      15.59457921       1.61331367      28.80312478       53       0.16632700      -0.13327700      -0.08306500 
I      15.93474099      13.13237946       8.64874839       53      -0.04218600       0.13852000       0.40873800 
I      15.45060742      12.56558766      28.67907888       53       0.03915300       0.29630300       0.45366200 
I       1.87139596       1.19490818      17.63349537       53      -0.85407500       0.04945900      -0.21979500 
I       1.52398713       1.48133486      36.56679891       53      -0.01098200       0.11676200       0.03409700 
I       1.27714688      11.83670745      17.44358020       53      -0.05058600      -0.06897700       0.04869200 
I       0.81093668      12.03406090      36.38986696       53       0.20576400      -0.00341500       0.03483300 
I       5.62705996       0.51526746      17.23206006       53       0.89255900       0.47082500      -0.09698100 
I       6.29018506       1.13167421      37.24679007       53      -0.31812900       0.01167500      -0.05441300 
I       6.03306598      11.19813301      17.42416796       53       0.13771300       0.82737800      -0.46081800 
I       5.73600001      11.83782885      36.15696712       53       0.14124900       0.59920700       0.18787900 
I      10.40047491       0.95441886      17.36449344       53       0.18867600      -0.27412200       0.15484400 
I      10.81312122       0.94157282      36.70821851       53      -0.20096900       0.03006700       0.17646400 
I      10.93214585      11.92078344      16.92191576       53      -0.40777800      -0.27612500       0.12276600 
I      10.39204438      12.49970439      36.33331934       53       0.10448300      -0.10363600       0.35928200 
I      15.23494711       1.28438692      17.87363725       53      -0.10490500      -0.68138900      -0.56705400 
I      14.87667871       1.24594691      36.56361693       53       0.25403400       0.29313400       0.14328400 
I      15.57471140      12.10549110      17.11911302       53       0.12132100      -0.72329100       0.23318200 
I      15.53191095      12.43863412      36.47067988       53      -0.01675100      -0.12662800       0.13733700 
I       3.63652622      11.05257524       1.85534492       53      -0.26750400       0.44658300      -0.28306300 
I       3.29030887      11.04718851      21.65220385       53      -0.02994000       0.28545400      -0.09040100 
I       3.23674599      22.94286961       2.21452045       53       0.21644100      -0.32271600      -0.00937500 
I       3.65274848      22.31030067      21.64476756       53      -0.17019400       0.21916000       0.39146500 
I       7.85105224      11.18062114       1.77523488       53       0.32253700       0.29146100      -0.07280700 
I       7.63717315      10.81391120      21.49545310       53       0.13730200       0.04519500      -0.14902900 
I       8.00130988      22.03679913       2.63594372       53       0.07355300       0.08595300      -0.18167300 
I       8.34071372      22.61646400      21.62227648       53      -0.09552600      -0.63414500       0.05849500 
I      13.46660383      11.33636463       1.71977262       53      -0.09275200       0.21984500      -0.01466700 
I      13.19205799      10.85806734      20.98024272       53      -0.01506900      -0.04446500       0.27731100 
I      13.20223570      22.13180977       2.51479543       53      -0.18276900       0.10825700      -0.33077800 
I      13.31541803      22.20649204      22.01522518       53      -0.26593500      -0.00986700      -0.15319700 
I      17.78341959      11.47390239       1.28314837       53       0.18859700       0.19760100       0.11367400 
I      17.83405582      11.00140434      21.69696675       53       0.05280100       0.38084700      -0.46074900 
I      18.05733565      22.46630348       1.87901448       53       0.00539400      -0.23607200      -0.57670400 
I      17.89022897      22.06114753      21.54571787       53       0.00232800       0.53598200       0.00150300 
I       1.09559516       5.47608443      12.12417543       53       0.05799900       0.16827800      -0.92630900 
I       1.11712004       5.72375672      30.69898329       53       0.24016800      -0.06829000       0.48859400 
I       1.19232095      16.84997792      12.27966461       53       0.14153100      -0.14162800      -0.17592800 
I       1.51405773      16.43677693      30.80410156       53      -0.14936800      -0.13777500      -0.06427200 
I       5.92215147       5.94004481      12.01791874       53      -0.26772300       0.23427300      -0.87546700 
I       5.72646610       5.49267915      31.44416386       53       0.12536000      -0.21656400      -0.65257000 
I       6.62819216      16.24455989      12.36343021       53      -0.17887100       0.44930400      -0.57537900 
I       5.85396532      16.32760259      30.56770435       53       0.31577300      -0.04082600      -0.16347300 
I      10.38694001       5.74548885      12.04055401       53      -0.06687100      -0.15147100       0.05711600 
I      10.87759072       5.68686565      31.74708314       53       0.01151200      -0.45076500      -0.32069500 
I      10.79791523      16.44654312      11.31046128       53      -0.06126700      -0.07369200       0.29475800 
I      10.68572913      16.35315951      30.82317638       53      -0.44675800       0.64683500       0.32657100 
I      15.71145316       5.53997221      12.11685730       53      -0.04132200      -0.07075100      -0.27666600 
I      15.97730815       5.24061137      31.10258330       53      -0.48876900       0.36032400      -0.12457900 
I      16.00964854      16.62869559      11.32968028       53      -0.11209100       0.05740800       0.42978400 
I      15.81338345      16.45218116      31.13036700       53      -0.05206500       0.15052700      -0.52267500 
I       3.42449044       4.59553481       8.35741658       53      -0.07452600       0.56603500      -0.75511400 
I       3.57244420       4.93240950      27.06829236       53       0.02297500      -0.02106400      -0.00872000 
I       3.58465645      16.31223640       8.06650229       53       0.11417700      -0.31226800       0.03084800 
I       3.24874797      15.47102191      26.62482657       53       0.45161700       0.47303000       0.29967500 
I       8.23062424       5.28826288       7.50105317       53      -0.03720000       0.06194500       0.78156400 
I       8.83802776       4.73168684      27.35030052       53       0.04217200      -0.17002200       0.11610900 
I       8.27006049      16.25375137       7.98602179       53      -0.01239500      -0.52198000      -0.37870000 
I       8.54422987      15.76984508      27.01388942       53       0.48117300      -0.40378400      -0.28178300 
I      12.76374912       5.01970751       7.83903223       53       0.01572700      -0.10122800      -0.09031700 
I      13.01056134       4.55051560      27.24958175       53       0.37868600      -0.01648800      -0.10463700 
I      12.76731257      16.21357119       7.35856323       53       0.30859100      -0.06358100       0.21508300 
I      13.72507360      16.21040123      27.04318500       53      -0.36923600       0.21363500      -0.03319200 
I      17.71644495       4.69545459       8.05021896       53       0.28628900      -0.10008500      -0.34030300 
I      18.45016921       4.63318884      27.04771366       53      -0.70437100      -0.18635200      -0.22220700 
I      18.52818864      16.08408149       7.43884549       53      -0.24476900       0.10661000       0.10492400 
I      17.93053931      16.04194987      27.17258459       53      -0.28301300       0.22441100      -0.48437200 
I       0.95727743       4.45308893       3.70218321       53       0.17476900      -0.05837200      -0.53871200 
I       1.03558722       4.13741973      23.19498945       53       0.17956700      -0.21306500       0.20646000 
I       1.17911546      14.72845661       3.68233943       53      -0.20899700       0.28603500      -0.36298100 
I       1.25481699      14.81165551      23.33103434       53      -0.26672600      -0.04467300      -0.43450300 
I       5.94960675       3.78935407       4.59093507       53      -0.04769900       0.25104200      -0.29356500 
I       6.06252476       3.66922706      23.72910144       53      -0.06279500      -0.28152300      -0.43432300 
I       5.64041464      14.37759446       3.69683053       53      -0.08753200       0.00736800      -0.25457100 
I       5.70390192      14.54247636      23.19381599       53       0.35610300      -0.10386000       0.26976500 
I      10.50627703       3.64404561       3.95688528       53      -0.17847900      -0.02231600      -0.00029800 
I      10.96746195       3.43963235      23.64649929       53      -0.00954000      -0.26517500      -0.20127100 
I       9.98320483      14.75263681       3.56678513       53       0.38816200      -0.03479600       0.31986200 
I      10.79756879      14.35543979      23.14724483       53      -0.27755700      -0.59122800      -0.11450200 
I      15.93795301       3.53402122       4.32947556       53      -0.32762500       0.15269800      -0.75826000 
I      15.97904432       3.76451405      23.48962338       53      -0.09294400       0.22835200       0.46603500 
I      15.47709249      14.68461887       4.24103712       53      -0.21774400       0.29284200      -0.65103600 
I      15.53887965      14.54904857      23.38094367       53      -0.04233100       0.38552500       0.10631900 
I       3.06323130       7.94287991      16.00822576       53       0.47750000       0.23381300      -0.34151700 
I       3.74652759       8.69273532      34.72399765       53      -0.40099000      -0.37900700      -0.33515300 
I       3.24106838      19.21693874      15.98905883       53       0.34236100      -0.10819700       0.38998200 
I       3.67533068      19.37941564      35.17561262       53      -0.19632400       0.27671700       0.04511300 
I       8.14413324       7.67020741      15.62028731       53      -0.00851800       0.20773900       0.09161500 
I       8.51345944       8.30771451      34.63244432       53      -0.12700400       0.28489500       0.55412900 
I       7.94681783      19.42205989      15.74636776       53       0.78222400      -0.16054400       0.09580000 
I       8.13769019      20.14954035      35.17618133       53      -0.24909500      -0.19685100       0.13458700 
I      13.19359991       8.68513983      14.66028248       53      -0.03005800      -0.45840600       0.40710200 
I      12.96266853       8.12451674      34.58236679       53      -0.03695600       0.32236000       0.40834200 
I      12.28128763      18.61904310      16.01572913       53       0.43427300       0.23140300      -0.66500200 
I      12.74991084      19.11192160      34.88032888       53       0.57320500      -0.05274700       0.39095000 
I      17.43333841       8.10380087      15.29982312       53      -0.00768400       0.38840400       0.43355400 
I      17.87358519       8.84307005      34.12072229       53       0.27063500      -0.41512900       0.22879400 
I      18.22146661      19.79950223      15.59693014       53      -0.51154900      -0.05840200       0.04650300 
I      17.88405927      20.05619378      34.94346272       53       0.11610900      -0.35929000      -0.65540000 
I       0.86206853       8.65755839       6.16871637       53       0.48859700      -0.50925900      -0.12797800 
I       1.70445649       8.80180652      25.29283520       53      -0.16212800       0.38907700      -0.70712900 
I       1.08652383      20.22207593       6.44609976       53      -0.31993600      -0.28514500      -0.60356100 
I       1.45445630      19.54663546      25.13718783       53      -0.56825700      -0.04009200      -0.05171200 
I       5.73787134       8.77199430       6.33255297       53       0.11029900       0.35715200      -0.37492600 
I       6.57103178       8.55908842      25.64987006       53      -0.12413100      -0.01911700      -0.34627900 
I       5.46525791      19.45113720       5.90537251       53       0.08842700       0.17155400       0.55962400 
I       6.41266101      19.72385176      24.39819799       53      -0.38104500       0.12437100       0.24175500 
I      10.45823003       8.75164388       6.19448255       53       0.23340700       0.11601400       0.08456700 
I      11.11606953       8.05118516      25.51723543       53      -0.11262000      -0.01557100      -0.27555000 
I      11.13285049      20.21160586       5.78503324       53       0.11336800      -0.51483000      -0.04868600 
I      10.38693200      19.66084108      25.15594425       53       0.40817300      -0.02725900      -0.26779100 
I      15.31986014       8.07914408       5.96661599       53       0.00128100       0.07635200       0.10401000 
I      15.49267896       8.51163016      25.20922279       53       0.08816700      -0.38969100      -0.24342800 
I      15.36476622      19.92310759       5.60796312       53       0.32991700      -0.03813800       0.19164300 
I      15.59408659      19.87452492      25.33853026       53       0.06192700       0.07576300      -0.16445100 
I       3.05040629       2.74106799      14.17844677       53       0.47436300      -0.23898200       0.04224200 
I       3.11589707       2.25619549      32.99313018       53       0.45525300       0.29877400      -0.11893400 
I       3.54296639      13.34606831      13.91271293       53      -0.41780400      -0.10410000       0.30139100 
I       4.08934269      13.37197266      32.63191510       53      -0.55808300       0.53076500       0.85935500 
I       7.41917192       2.34027449      13.54345981       53      -0.05915500       0.16081700       0.11855600 
I       8.37953220       2.31656188      33.53481963       53       0.04555500      -0.47629100      -0.32990700 
I       7.38085006      12.78130304      13.43203166       53       0.48903400       0.52232900      -0.24639500 
I       8.16399604      12.85704763      32.86778265       53       0.17729300       0.66915500      -0.39778600 
I      12.41979860       1.97768770      13.99100069       53       0.16777400      -0.12968600      -0.02588300 
I      13.80324623       1.14494579      32.77747788       53      -0.06502200       0.31899200       0.02912300 
I      13.40351605      13.67039232      13.45141487       53      -0.10239600       0.26346800      -0.14905700 
I      13.25154627      13.71720478      32.89266472       53      -0.22759300      -0.20266600       0.40608800 
I      18.35687571       2.13728700      13.92210666       53      -0.07985600      -0.22030800      -0.26238200 
I      18.30495387       1.70677639      32.90881289       53      -0.08886400      -0.27459800       0.49217100 
I      17.62079150      13.28680831      13.35541198       53       0.78959000       0.46981900      -0.12445600 
I      18.07397543      13.66653050      32.80066984       53       0.22457900      -0.46243200       0.47558500 
H       3.37313430       0.16198428       4.99468627        1       0.31519900       0.49946300       1.60953500 
H       5.10360228       1.15010423      26.42952568        1       1.00696800      -0.10400100      -0.97438400 
H       2.44631791      11.47588086       5.74091014        1      -4.38474200      -5.74133000       2.62173000 
H       4.03569970      10.98314153      26.19484061        1      -0.88103300       1.19284400      -2.09344600 
H       7.75935173       1.42403731       5.03806544        1       1.94086200      -0.91318600       1.51578100 
H       8.96950394       2.06589485      26.40078679        1       0.19429100       0.43811900       0.51413100 
H       8.25767703      12.95107505       6.32348565        1       0.70379300      -2.40909500      -1.76822800 
H       9.30974583      12.10752865      24.51518709        1       0.15365900       0.34000100       2.08998300 
H      14.07345666       1.37950770       5.72645909        1      -0.00399300      -0.93628800      -2.02112100 
H      12.49176647       0.30911702      25.05835739        1       0.15834200      -0.70396900       1.47518500 
H      11.83756652      11.98446897       5.80660017        1      -2.10126800       0.19789200       0.51313800 
H      14.26516206      12.39238136      25.48237189        1      -0.55707600      -0.71750400      -0.25082300 
H      18.23789413       2.19610345       6.53926611        1      -1.02613100      -0.40130600       0.32617300 
H      19.66755546       0.38418176      25.41296422        1      -1.87020800       1.51529400      -0.40014800 
H      18.08341021      11.65568940       4.29460602        1       0.97261300      -0.63090200      -0.03290600 
H      16.73373476      12.82399836      26.08926977        1       0.71501500      -0.07592700       0.67655400 
H      -1.02031815       9.38256577      12.83363339        1       2.62748500       0.02402400      -1.32574800 
H       3.04095248      10.86115119      31.27861813        1      -0.42842200      -0.78195900      -0.32928400 
H       0.66810832      20.80801364      12.64399758        1      -0.47064000      -0.08944000      -0.96826800 
H       3.02021659      20.77200267      31.48007671        1      -0.08669100       0.73770000      -1.02206100 
H       4.27727638       9.10814507      13.01695532        1      -3.66359300      -4.24244800       1.19326700 
H       7.23300444       9.55982412      31.68385819        1      -1.16990700      -1.06594800       0.39251700 
H       4.09213117      19.66746835      12.81272228        1      -2.19010900       0.13293300       0.71006400 
H       6.31009492      20.18364594      32.73590897        1       0.27687800      -1.96142700       0.00239600 
H      11.03759654      11.00552248      14.23045271        1      -0.57415700       0.67843000      -2.76689700 
H      11.62707667       9.39989941      32.34354499        1      -1.05973500      -0.22683100      -0.96789400 
H       9.35709396      21.81834733      11.88274794        1       0.19986300      -1.06536900       0.52893500 
H      11.26846884      20.04648666      32.03225526        1      -1.26885500       0.20501600       1.53350500 
H      15.69586169      11.30603476      11.53206602        1       1.12815300       2.75766500      -2.05945900 
H      14.18620846      10.95015434      31.60291611        1       1.79899300      -1.97462900       0.91403700 
H      15.17735719      19.63340481      13.18835736        1       0.15102900      -2.02493000      -1.19373300 
H      16.15439830      19.54843070      32.92773652        1       0.71915000      -1.02269200       1.50955600 
H       4.73094792       7.24901243       2.59963938        1       3.83821800      -0.64368800      -0.10468300 
H       5.34590686       7.63890031      22.78581849        1       0.18854300       0.17114800       0.52505400 
H       2.24863806      18.47057770       3.51543901        1      -0.07201700       0.38428100       0.63650000 
H       2.92798341      18.84108738      21.76781723        1      -0.06225500       0.19822700       0.40279300 
H       8.59022130       7.37645658       2.29151560        1      -0.17214500       0.16976000       0.63761100 
H       8.63616167       8.01456543      23.49168296        1      -0.19092300      -1.27999100      -0.93478500 
H       8.26423221      17.76173751       4.71811789        1       0.41431100       0.29578200       0.74074200 
H       9.33135181      18.51462771      22.37361373        1       0.01328500       0.89317200      -0.40365800 
H      12.46341107       7.64145049       2.13886497        1      -0.11857900      -0.29465700      -2.71480400 
H      14.87236732       6.57540524      22.02210177        1      -1.11453700       0.20138100       0.46064400 
H      13.52817672      17.51404220       1.95874104        1      -1.10112700      -0.89165300      -0.87063600 
H      13.67794175      17.16834750      23.90628971        1      -0.07424300      -0.70225600      -1.01501300 
H      16.59747961       8.36241883       3.11655790        1      -2.47703900       0.79480600       1.34054200 
H      18.74759964       7.23237164      21.63256833        1       0.82026500       1.20530600      -0.48495400 
H      19.07164730      18.45456370       2.54673531        1      -0.88230100      -0.00853700      -0.14754200 
H      17.74717232      18.03278199      21.42872077        1       1.03540300      -0.61726000       0.42662200 
H       0.85499170       5.98710959      14.63495184        1       0.21733400      -0.63486700       2.21107100 
H      -0.10007097       4.29700702      35.83170894        1      -0.32992700      -0.74761200       0.72178400 
H      -0.03725152      16.64455039      17.06343448        1       1.25412600      -0.53747100      -1.64246900 
H       2.00427089      15.38769586      34.73605871        1      -0.16107400       0.52212000       1.11837000 
H       5.80986024       3.64917101      16.32462588        1      -0.42182500      -0.31025100      -0.36784900 
H       6.53008765       4.58906473      34.03405907        1       0.30862900       1.35206800       0.19567700 
H       5.17400319      16.67246926      14.97835968        1       0.03583200       0.00276700      -0.09966400 
H       6.26849898      16.64319270      34.13180013        1       0.68283500      -1.53865700       0.06021000 
H      11.81445266       4.75913612      17.20399602        1      -1.44335100      -0.66112400      -0.34410000 
H      11.74721169       3.75885198      36.04026638        1      -1.33466900       0.92975000      -0.80617700 
H       9.51163895      16.00476043      14.25443166        1      -0.06745200      -0.88200200      -0.83959300 
H       9.10302468      16.33121410      35.75165497        1      -0.05492200      -0.76725500       3.35137800 
H      16.08802241       4.18151780      16.90062918        1       0.92532100       0.53301600       0.38142500 
H      15.02223948       4.73199522      33.94241463        1       2.10919300      -0.00038300       1.21407000 
H      16.84049709      16.72791449      15.48664943        1      -1.62987200      -0.79695100      -0.00480300 
H      16.80255570      16.55076227      34.32766772        1       3.42302800       0.11228100      -2.27813200 
H       4.55540070       1.35723188       5.70702182        1       1.71837100      -0.66139200       0.54762200 
H       3.58010577       1.26340572      26.87490586        1      -0.46290800      -0.06813200      -1.52879000 
H       3.51508557      11.72772235       4.54247556        1       0.61237000       1.00267500       1.57423800 
H       4.27355173      12.65193950      25.34338833        1       1.19004900      -1.07151200       0.24545300 