768
Lattice="19.7245913481 -0.070618708222 0.0116575835463 -0.0940699171339 21.6646727299 0.0886432489737 0.0200361591241 0.152281811496 39.1984106087" Properties=species:S:1:pos:R:3:Z:I:1:forces:R:3 energy=-99811.7852939 stress="-483.041509 2412.097698 282.291017 2412.097698 2468.172952 -579.520744 282.291017 -579.520744 -16.510397" pbc="T T T"
I       3.41388043       4.31445827      19.80836010       53       0.46013800      -0.02038600      -0.15541100 
I       3.59795301       4.79564518      39.37762170       53       0.07657800      -0.04055900      -0.22632500 
I       3.51287086      14.96385490      19.60589086       53       0.18645400      -0.19875000      -0.11024000 
I       3.71194305      15.21273540      39.05221867       53      -0.10687700       0.42104500      -0.07764000 
I       8.82162477       3.85581628      19.89062339       53      -0.48828000      -0.00184500      -0.25606300 
I       8.67591998       4.80235325      39.37281522       53      -0.48366600      -0.49503200       0.07620800 
I       8.16654740      14.21769052      19.40527719       53       0.26444400       0.14022200       0.00312700 
I       8.62972778      14.89013323      39.03741212       53      -0.13228000       0.12646200      -0.06238600 
I      13.47473114       3.80216579      20.05854401       53      -0.32903900       0.16766400       0.04538700 
I      13.56947126       4.06552674      39.60197967       53      -0.18258800       0.21797200      -0.16488600 
I      13.07840531      14.36409153      19.40546525       53       0.15958800      -0.00416900       0.05614000 
I      12.92876731      15.03430355      38.81967018       53       0.29338500       0.17683100       0.10499200 
I      18.46113196       3.95674531      19.99514852       53      -0.68803100       0.40580700      -0.22746900 
I      17.91861219       4.43904456      39.20891484       53       0.03323100      -0.00461100      -0.50347100 
I      18.00591303      14.67762291      19.26986056       53       0.04771900      -0.11796000      -0.44274100 
I      18.28617118      15.37391795      38.92948894       53       0.34052900      -0.16457300       0.09770900 
I       0.93029797       8.00152767      -0.15841270       53       0.23933600      -0.20683300       0.10527000 
I       1.04885542       7.42582370      20.20221117       53       0.09193500       0.31467800      -0.28323200 
I       1.01804295      18.96087858      -0.01572683       53      -0.22767000      -0.42300700       0.11584100 
I       1.05525939      18.70516398      19.42484921       53       0.22545800      -0.18620300       0.50321100 
I       5.89252637       7.73742549      -0.29836972       53       0.11046300       0.50127400       0.21309700 
I       6.43720980       7.11477809      19.33841064       53      -0.30324400       0.19496700      -0.01988400 
I       6.08315596      18.60008968       0.14672710       53       0.12300800       0.17862700       0.07575300 
I       6.34327893      18.44836904      20.03036134       53      -0.33652800      -0.25630000      -0.51916500 
I      10.56078739       7.98044819       0.07619142       53       0.35666600       0.01890500       0.02510300 
I      11.43400682       7.32499071      19.33573381       53      -0.27573500       0.49598400      -0.18785800 
I      10.72998240      18.47603254       0.02281901       53       0.26212600       0.08593900       0.05786900 
I      11.02313552      18.68877194      19.99809742       53      -0.67886800      -0.80257600       0.27118400 
I      15.97383736       7.94383494      -0.20270731       53       0.19383600       0.01022600       0.07837100 
I      15.73843800       7.64587935      19.02480223       53       0.01609200      -0.25694700       0.34721700 
I      16.01193708      18.90185844       0.36219334       53       0.16989200      -0.15228800      -0.32239100 
I      15.75340260      18.35924364      19.20180064       53       0.57339600      -0.58595400       0.10383100 
I       3.18299045       8.76172336       9.96498524       53       0.05174200       0.11651900       0.03498600 
I       4.03299574       8.47916650      29.49434758       53       0.47246100       0.49638900       0.19290000 
I       3.63930372      20.10924659       9.79063465       53       0.05052800      -0.47343800      -0.18267200 
I       4.25857409      19.40050472      28.90850649       53      -0.29644900      -0.27143800       0.11929600 
I       8.32286545       9.24624830      10.05576815       53       0.05702400      -0.21908700       0.15602300 
I       8.86136299       8.81908199      29.00042274       53       0.00223300      -0.43279100       0.16345500 
I       8.47092297      19.95190723       9.52002346       53       0.10714600      -0.16834600       0.11165200 
I       8.64936882      19.09694441      29.45956788       53      -0.22756700       0.10474600      -0.33492200 
I      13.49509540       8.16654840      10.37059793       53      -0.12322000       0.38987700       0.34526100 
I      14.15093000       8.56965732      29.41356774       53      -0.27468000       0.13608700       0.09486200 
I      13.73798506      19.21486166      10.44055643       53      -0.20807600      -0.00228200      -0.45690100 
I      13.71360157      19.63995433      29.12378166       53       0.08552100      -0.30769700       0.01070200 
I      18.40491068       8.87587045      10.16155267       53       0.59490500       0.64110900       0.10651300 
I      18.55215794       8.39795554      29.01811518       53       0.48961900       0.37301600       0.26815600 
I      17.94511134      19.56349683      10.15418640       53       0.96092200       0.39076500       0.55449000 
I      18.91398017      19.05426429      29.71410913       53      -0.25807500      -0.10874100      -0.63063600 
I       1.49503357       1.72649372      10.18316931       53       0.03680000      -0.09644700       0.03885900 
I       1.46355390       1.53658835      29.02976076       53      -0.39092400      -0.19866500       0.36148900 
I       1.74290377      12.28408113      10.23000371       53      -0.31618800       0.37977000      -0.25290100 
I       1.34902969      12.03833059      29.09428960       53      -0.16422700      -0.17272100       0.00362000 
I       6.18793317       1.62409125       9.45521454       53      -0.22128600      -0.03604100       0.12126400 
I       6.43962454       1.15314848      29.65982844       53      -0.21758500       0.03868400       0.04169400 
I       5.89406884      12.70922582       9.28975067       53       0.30687700       0.05793800       0.61233000 
I       6.09408532      12.02401419      28.93358720       53      -0.01967900       0.04322500       0.26806700 
I      10.95056721       1.84270245       9.72639090       53       0.02713000       0.01587700       0.41003400 
I      11.00969038       1.12737155      30.51939668       53       0.35775800      -0.38884500      -0.62669200 
I      11.28921531      12.20947720       9.69256150       53       0.02450500       0.09489300      -0.05957300 
I      11.35877969      11.86874146      29.19780942       53      -0.05802900       0.62873800       0.24057900 
I      15.68823257       1.52408450      10.32050953       53      -0.64679100      -0.30775800      -0.23155400 
I      16.45961769       1.42463793      29.11597526       53      -0.23226000      -0.32944100       0.21579000 
I      16.49558075      13.18305748       8.62879450       53      -0.01654200      -0.17265100       0.23842100 
I      16.09576084      12.38695376      29.66151496       53       0.00951900      -0.32011000      -0.18166000 
I       1.46301273       1.10788957      17.71562779       53       0.23371100      -0.25229100       0.29887900 
I       1.68553313       1.20268471      36.95645843       53      -0.46320600       0.09415100      -0.10575400 
I       1.20208252      10.85055146      17.57100834       53      -0.03089200       0.79262600      -0.15981000 
I       1.25308820      12.02496248      36.86377994       53      -0.07956300      -0.24354800      -0.09155600 
I       6.49046017       0.65502235      17.39386288       53      -0.51965900       0.06433100       0.52351200 
I       6.05780517       1.51161067      37.63588429       53       0.11564100      -0.49030300      -0.32214000 
I       6.15131692      11.22857267      17.38636558       53      -0.29260700      -0.22505000       0.09471300 
I       5.86924821      12.10426786      36.98125105       53      -0.12265800      -0.31857400      -0.06565600 
I      11.31114705       0.99072055      17.49652044       53      -0.40554600      -0.27995000       0.13188700 
I      11.22522264       0.79705001      37.19007525       53      -0.01999200      -0.14353400       0.25033400 
I      10.80492044      11.33638081      17.44825460       53       0.17462500       0.39436000      -0.08239100 
I      11.15397774      11.79218192      36.98219834       53      -0.28772300       0.22699100      -0.07911000 
I      15.89518719       0.69582190      17.65532826       53       0.11534400      -0.06131500       0.30936200 
I      15.77982973       1.04132911      37.17975507       53      -0.12476600      -0.30083400      -0.14061800 
I      16.35706917      11.46951473      17.71939695       53       0.18044900       0.43335100      -0.47930300 
I      15.81102632      11.35775938      36.71740995       53      -0.04538900       0.32874800       0.25672300 
I       3.45404477      11.18810523       1.62618089       53       0.30697800      -0.55541600       0.21734700 
I       3.16349646      10.65398604      21.70200321       53       0.04466600       0.27542300      -0.11449100 
I       2.97486848      22.23619742       2.23259930       53       0.12123800       0.11358100      -0.13014100 
I       3.14787066      22.04925095      22.27264762       53       0.60489000      -0.47233400      -0.33206000 
I       8.05406382      10.85611117       1.75434429       53       0.26902000      -0.05638200       0.54691200 
I       7.93169421      10.25412912      21.36657810       53       0.22784000       0.27584200       0.24614900 
I       8.60193924      21.72688385       2.62015344       53       0.02733100       0.12816700      -0.02560800 
I       8.11651902      21.31312266      21.47667894       53       0.24841700       0.70557600       0.12970300 
I      13.61663276      11.24165769       2.08986743       53      -0.41751100      -0.59510800      -0.03955200 
I      13.49284571      10.67062315      21.75224165       53      -0.05018400      -0.04150400      -0.33558700 
I      13.58068571      21.50814861       2.36177601       53      -0.18823700      -0.23897400       0.07979200 
I      13.20272552      21.55840606      21.94362548       53       0.53129500      -0.02072900       0.01411200 
I      18.56998042      11.18329775       1.24463860       53      -0.40645900      -0.34229600      -0.03319800 
I      18.44091274      11.06122122      21.55335851       53      -0.76736000      -0.58969200       0.56794400 
I      18.49655085      21.98537531       1.81098070       53       0.07420400      -0.03664400      -0.22451800 
I      18.33538831      21.84579041      21.63942697       53       0.10008000      -0.22250900       0.32242700 
I       1.32117813       5.31782670      11.66542596       53       0.04323300      -0.03627500       0.66464200 
I       1.26171285       5.26324092      31.39969628       53      -0.00565900       0.29842800      -0.12569100 
I       1.34687803      16.48121033      11.90689318       53      -0.13079000       0.05684100      -0.31511700 
I       1.50969308      15.93151936      31.25467270       53       0.01511300       0.29917100       0.06588200 
I       6.01232519       5.71031335      12.16928684       53       0.14569000       0.09300400       0.02228200 
I       6.16903636       5.06380362      31.39309225       53      -0.06538800       0.26434500       0.32810200 
I       6.44697180      16.43851221      11.65591203       53       0.13408700      -0.01217700       0.18800800 
I       6.33118421      15.86562810      30.76245739       53      -0.31369700       0.03446000       0.34261600 
I      10.44070348       5.35788302      12.31690222       53       0.26042400      -0.07243400       0.13570100 
I      11.09315204       5.11052998      31.53237307       53       0.53027900       0.25566900       0.34982600 
I      11.11972921      15.83660418      11.47683198       53      -0.01663500       0.30365400       0.04875800 
I      10.66258368      16.06768421      31.16490411       53       0.37629900      -0.24327700       0.24342400 
I      16.55084874       5.52169837      12.11974261       53      -0.40551500       0.10179000       0.36714100 
I      16.17183423       5.06103476      31.67597521       53       0.08500500      -0.15295300      -0.27787300 
I      16.38322721      16.19952274      11.69164102       53      -0.13392600      -0.19839500       0.08907100 
I      16.21326196      16.16911339      30.88791696       53      -0.03901600       0.02584200       0.19369000 
I       3.60236737       5.34104684       8.09501241       53       0.04909700      -0.81252300      -0.22718700 
I       4.04689102       4.60342309      27.46885294       53      -0.10923800      -0.05893100       0.08871600 
I       3.59731782      15.72452773       7.81602065       53      -0.01343900       0.64488600       0.52999600 
I       3.78484146      15.23606257      27.04552581       53      -0.07781300       0.06104100       0.02733900 
I       8.10558866       5.25187343       8.33280651       53       0.19514800      -0.34866100      -0.51269700 
I       9.03684293       4.44427317      27.63254226       53      -0.12073500       0.38254400       0.03422800 
I       8.28621319      15.70065639       7.60674132       53       0.12386200       0.51453600       0.31350100 
I       9.27663064      15.18920817      27.13879648       53      -0.28021100       0.27853600       0.27504900 
I      13.44748576       4.92093670       7.96192550       53      -0.18557100      -0.17089200       0.39205000 
I      13.70913019       4.54866026      27.23604837       53      -0.08889500      -0.07194900       0.33589000 
I      13.30904721      15.74611236       7.68355693       53      -0.10150500       0.17599300       0.13317200 
I      13.67672923      15.70662822      26.96125590       53       0.12872600      -0.15494200       0.19901800 
I      18.05692571       4.40265838       7.97055415       53       0.15116800       0.26760500       0.22574800 
I      18.48679285       4.46680510      27.45659317       53       0.54573900      -0.21991500       0.11679000 
I      19.31983293      15.55265789       7.62372354       53      -0.34975600      -0.05592400       0.16852100 
I      18.58362561      15.58471275      27.05093547       53       0.13782600      -0.25276600       0.30235700 
I       0.83870682       3.84375657       3.44398668       53      -0.06956700       0.23100100      -0.07180100 
I       1.82332749       3.61752603      24.04066511       53      -0.49662700      -0.21651200      -0.36837200 
I       0.82947398      13.83884807       3.79122742       53       0.15426400       0.26626900      -0.11866600 
I       1.30386681      14.27954954      23.11899779       53      -0.00037700       0.00265400       0.54563400 
I       5.71511983       3.34439107       4.25710264       53       0.16034900       0.14412600       0.09999100 
I       6.73763215       3.08963576      23.77798636       53      -0.19260600       0.17966200      -0.04698400 
I       6.20454328      14.55401791       3.64186951       53      -0.10544500       0.18163200       0.22734500 
I       6.12131069      13.99716874      23.43948031       53      -0.23835400      -0.11090400      -0.26886000 
I      10.89632554       3.81241594       4.19760735       53      -0.37453300      -0.58697600      -0.36108100 
I      11.06112019       2.92375676      23.87467409       53       0.20968000       0.29949700       0.33870600 
I      10.73667146      14.05717118       3.90689898       53       0.13185900       0.03182000      -0.26380000 
I      11.12589410      13.67913497      23.52050321       53      -0.06281100       0.01996200      -0.16767500 
I      15.89743988       3.40129256       3.81570195       53       0.63951400      -0.57855900      -0.04998600 
I      16.65261702       3.45415381      23.93932596       53      -0.59562500      -0.05719400      -0.40220000 
I      15.81309595      14.42278257       3.37914375       53       0.06906500       0.19279900       0.38687000 
I      15.57678331      14.15692785      23.62714399       53       0.39194400      -0.06037900      -0.30034400 
I       3.35371693       7.91186011      15.86147983       53      -0.00978200      -0.47199100      -0.62548100 
I       3.78675005       7.82771924      35.22886537       53      -0.08602400       0.56031100      -0.09400200 
I       3.45503408      18.58773088      16.46465224       53       0.66900100       0.01554700      -0.24515400 
I       3.40300609      19.25031055      35.44133268       53       0.42263900      -0.01903100       0.18311200 
I       8.52838763       7.29834752      15.77170323       53       0.53521300       0.08364300      -0.01680600 
I       9.22538989       8.58315146      35.22073687       53      -0.53045000      -0.39360000       0.07475400 
I       8.80164963      18.46422391      15.79716506       53      -0.17211000      -0.03220900       0.25303200 
I       8.24419127      19.00211126      35.92365495       53       0.08145100       0.60045200       0.08402400 
I      13.17559718       8.34577850      15.32297229       53       0.30500100       0.20639100       0.07115300 
I      13.41157172       7.88514890      35.31936319       53      -0.09232200       0.20010900      -0.09908600 
I      12.99268696      18.24572674      15.67415924       53      -0.06245100       0.04186200       0.27054700 
I      13.64487044      18.66003810      35.51061298       53      -0.31857200      -0.13082300       0.07916700 
I      18.34722595       8.18231025      15.82405832       53      -0.14201500       0.15910200      -0.27374200 
I      18.74077292       8.23201853      34.62256099       53      -0.38562800       0.35910900      -0.19641300 
I      18.52758039      18.99954447      16.11271406       53      -0.00028300       0.00403900      -0.37545500 
I      18.21772814      19.03335686      34.72268077       53       0.11128800      -0.13609900       0.73632100 
I       1.45519433       8.10538960       6.18233645       53      -0.55571200       0.63041600       0.05247600 
I       1.98322464       8.62815930      25.51861043       53      -0.11845200      -0.43688000       0.17547100 
I       0.82854269      19.34427144       5.62766195       53       0.24523200       0.33688200       0.27386800 
I       1.01968445      18.60798710      25.35350868       53      -0.04075900       0.16087700       0.40873900 
I       5.91196234       8.69804078       6.06798430       53       0.20938000       0.10270400       0.41173800 
I       6.59764812       7.89000939      25.60184502       53      -0.01118500      -0.27242600       0.12381300 
I       5.46957835      19.55800914       5.91054891       53       0.08925000      -0.06982800       0.01095300 
I       6.28353456      18.96928817      24.96504927       53      -0.07317100      -0.00726300       0.30439400 
I      10.93953882       8.46347067       6.89998406       53      -0.09852200       0.21594300      -0.48474900 
I      11.75471140       8.07285360      25.81548169       53      -0.42350400      -0.51092000       0.07888000 
I      11.15553722      19.69902349       6.25655127       53       0.21057600       0.02004700      -0.63350000 
I      10.98156774      18.82764363      25.32249715       53       0.15421200      -0.02070800      -0.02416500 
I      15.75667061       8.44803393       6.40301529       53       0.04564500      -0.09620600      -0.16039200 
I      16.38768558       8.05202019      25.57853685       53      -0.47503500      -0.01114400       0.05433200 
I      16.03019569      19.39914030       6.40667241       53      -0.29569800       0.25540900      -0.46241800 
I      16.49684214      19.49622815      25.23929157       53      -0.24755300       0.14331800       0.18370500 
I       3.37746023       2.49511900      14.81272544       53       0.18529600      -0.01926600      -0.28430700 
I       3.17143990       2.51810607      33.57413070       53       0.20804800      -0.42646000      -0.08826000 
I       2.77094879      13.10083120      14.05632392       53       0.58304800       0.12589500       0.18434100 
I       3.72089881      13.17386465      33.46601947       53       0.14946600      -0.28212500      -0.28131800 
I       7.70685809       2.40595159      13.85523511       53       0.48410300       0.08431300       0.31961700 
I       8.69269914       2.43067919      33.73473207       53      -0.10015900      -0.23138700       0.24647700 
I       7.67033787      12.56467039      13.50320189       53       0.38823400       0.02524900      -0.03134500 
I       8.95724246      12.78941947      33.38121940       53      -0.49033400       0.17963000       0.25549100 
I      13.15611920       1.90244981      13.84693055       53       0.00347100      -0.33401800       0.34604200 
I      13.90740414       1.65028530      33.29958431       53       0.09434900       0.27918800       0.05878700 
I      13.58428582      13.42255710      13.60896140       53       0.02135200      -0.42222600       0.57758200 
I      13.29535900      12.97121036      33.12215577       53       0.34167900       0.35965300      -0.18025900 
I      18.41623616       2.07044446      14.21308911       53      -0.20730100      -0.06237600       0.07802200 
I      18.50374006       1.58794814      33.98406072       53       0.17180400       0.10948500      -0.64316900 
I      18.11975902      13.22633178      13.58836907       53       0.04444600      -0.26847300       0.40672000 
I      18.78485047      12.86982919      33.31192310       53       0.21130600       0.17155200      -0.43670300 
H       2.61562104       2.16425729       5.44929812        1      -0.42225100       1.01276000      -0.17974900 
H       2.92162111       1.19567955      25.00298493        1       0.69522800       0.29081700      -0.97341800 
H       3.54831675      10.82591789       6.51808566        1      -0.75638300      -1.20071900      -1.75594400 
H       4.56851636      10.23358881      26.87229456        1       0.42998100       0.40927500      -0.40769000 
H       8.79793249       2.05776356       7.72947104        1      -0.23951600       0.16903500       1.04973300 
H       9.02337579       1.88623483      26.48744725        1       0.96407200      -0.87221700       0.06709000 
H       9.24609125      13.01201990       6.74751919        1      -1.23413100       1.25315200      -0.39024600 
H       9.75587896      10.87106977      24.60268988        1       0.71261200      -0.19454200      -0.41856900 
H      13.50589472       0.38869348       5.59937125        1      -0.13108300       1.61025100       1.54416700 
H      12.79219533      -0.37896649      26.05333481        1       1.62405400       1.93103100       0.85049400 
H      14.24983040      10.87154892       5.58297421        1      -0.55521500       1.20322400      -0.21678000 
H      14.27525822      10.37387093      25.36628861        1       0.73459400      -0.21933600      -0.41390000 
H      18.36201749       1.14902121       8.01303821        1       0.73565400      -0.37175100      -0.01855500 
H      19.10271618       0.53241466      24.48966313        1      -0.58021800       0.82097400       0.05383100 
H      19.44826741      12.38366674       6.04057488        1      -0.64477700       0.31609600       0.19605200 
H      18.05043871      12.38649361      26.15601837        1       0.35107000      -0.58780100      -0.32267500 
H       1.19021887       8.62171632      13.06066385        1      -0.56698200      -0.46863000       0.45646900 
H       1.73360291       8.36146232      32.64742783        1       0.39992900      -0.52151200       0.07533100 
H       0.90951058      21.95980845      13.02603821        1      -0.25976600      -0.46177800      -0.16529700 
H       1.36178961      18.94447354      32.97843859        1      -0.01890700       1.77843000      -1.40978400 
H       4.63063246       9.30399405      12.84225071        1       2.30816500       0.10876500       0.03806500 
H       7.68639380      10.14678112      31.72126813        1       1.04197700       1.48008700       0.04243500 
H       7.43747328      21.51741546      12.84569377        1      -1.45699700      -0.36760000      -0.77444600 
H       6.51616207      19.22971122      32.96456832        1       1.10267300       2.04510100       0.72207900 
H      11.83693268      10.09981869      13.21665781        1      -0.24224200       0.76649100       1.50750100 
H      10.96841570       9.83104407      31.12141474        1      -0.72774200       0.71528900      -1.41971900 
H      10.36394188      21.32572054      12.44255185        1      -0.41525200       1.25551900      -1.98366200 
H      10.13636892      19.05166849      33.35021887        1       0.16125000      -0.64316200       0.94408500 
H      15.80228063      11.03713582      12.16436933        1       0.28347900      -0.90041600       1.06358400 
H      15.88922936       9.62627412      31.66360941        1      -0.40322100       1.02635000      -2.66121900 
H      15.91153621      19.37249611      12.72379330        1       0.54418200       3.18871400       0.54519000 
H      15.40261877      19.24875908      31.64136157        1      -0.90407200       1.16027800       1.43934700 
H       2.80776311       8.13650817       3.61501826        1       0.56259000      -0.02020800      -0.94542100 
H       3.68095153       7.66291858      23.15939521        1       0.33944900       0.11807100      -0.67824200 
H       2.96922174      16.98112501       4.39769485        1      -0.24345400      -1.18457800       0.09358200 
H       2.16837356      17.27425211      22.41302978        1       0.94025500       2.04155500       0.08632500 
H       8.58585930       8.05546025       4.00508016        1       0.67448900       0.15816700      -0.06028300 
H       9.84772520       5.88555022      21.84655764        1       0.70171700      -0.97221000       0.06108200 
H       9.81234132      17.01796933       4.62767255        1      -1.43547000       0.96621900      -1.41803400 
H       7.37915636      16.94062656      22.37376070        1       0.30055700       0.20183000       0.42427700 
H      13.15702448       5.76125401       2.52008367        1       0.07019200      -0.51957200      -1.85395600 
H      13.96038243       6.46498334      21.88512550        1       0.69409800       0.24503700      -1.34447700 
H      13.86107190      16.71242941       2.67018081        1       0.13754600       1.34080400      -0.44194500 
H      14.90639923      17.42557563      21.85918752        1       1.49519300       0.17212800      -0.89971200 
H      18.88562045       8.42683741       3.38718022        1       0.11164700       1.93169800       0.11794500 
H      19.74786250       7.81767116      23.47713088        1      -0.15985100      -0.77575100      -1.16441000 
H      17.00636576      17.88818784       3.82353336        1       1.50910400      -0.05576400       0.00032100 
H      17.35681849      16.56281742      21.39521790        1      -0.23017000       0.63021500       1.24801100 
H       0.59504892       3.63377202      17.33670031        1      -0.35985400       0.14248300       0.31260700 
H       1.73844540       5.52369899      34.52865612        1      -1.25102100       0.16123900       0.28627200 
H       1.17757799      16.46492032      16.42865117        1       0.86744800      -0.00739300      -1.55646300 
H       2.27213546      14.71853148      35.89816311        1       0.56442700      -1.91928500       1.42721900 
H       7.47746258       4.30715802      16.96852713        1      -0.25673000      -0.76252700       0.41024200 
H       6.29690867       4.02942165      35.06850407        1       0.02985000      -0.43414200       1.52867000 
H       6.20407814      15.35637356      14.70997685        1       0.18477200      -1.21605800       1.19964900 
H       5.56350322      16.72147619      34.42516631        1      -0.62559200      -1.44437400       0.98510600 
H      11.97296549       4.23271514      15.04324530        1       0.27647700       1.30196500       1.19652900 
H      11.01514006       4.50836187      37.75652037        1      -0.29367400      -0.26202300       0.59702600 
H       9.06948396      15.72310529      15.80024700        1       1.96878600      -0.47418900       0.75791100 
H       9.39273633      15.56010418      35.04905309        1      -1.52960300      -0.72539200      -0.77716200 
H      15.50952363       5.68703420      16.60920368        1       0.46524900       0.58445300       0.93385800 
H      14.52407871       3.61823125      36.33082211        1      -0.15760700       2.00646500      -0.38920300 
H      15.81290489      16.82469992      15.41820656        1       0.49565100      -1.70237700      -1.32945500 
H      14.51920221      14.99098023      35.94983900        1       0.38178000      -0.09647300       0.51607900 
H       1.86746406       2.62386758       7.14625776        1       0.98599400      -0.36920200      -0.42598800 
H       4.42737198       1.05821330      26.13427569        1      -0.41822300       0.88654500      -0.19228200 
H       4.20404733      11.70911939       7.55922471        1      -0.16086100       1.50255100       4.18852700 
H       5.57843681      11.31155618      25.65786124        1      -1.15987700       0.02459700       0.71392100 