768
Lattice="19.2257150325 -0.013729668518 -0.0801288558821 -0.0136913641277 21.3939055813 -0.287292748996 -0.155273230204 -0.479268460268 38.5422212916" Properties=species:S:1:pos:R:3:Z:I:1:forces:R:3 energy=-99814.8943369 stress="-1915.017411 -312.392645 91.153971 -312.392645 -2475.414378 2089.079016 91.153971 2089.079016 -2595.647544" pbc="T T T"
I       3.26049524       3.83322445      19.24273691       53       0.10934900      -0.17444100       0.20856200 
I       3.30333133       4.12361101      38.42830895       53       0.42199600      -0.87784300       0.20369900 
I       3.49880257      14.32628002      19.30366054       53       0.19426700       0.13976100      -0.30377000 
I       3.48208417      14.05407331      37.62284521       53      -0.07362700      -0.21626300       0.49898200 
I       8.64193698       3.43353287      19.13833093       53      -0.26850400       0.00266000       0.31480100 
I       8.38107132       3.91020842      38.97638682       53       0.02099300      -0.61462600      -0.15851400 
I       8.56059221      14.48224273      19.13447987       53       0.02846500      -0.17989800      -0.25067700 
I       8.02379743      14.19515918      38.43530097       53       0.04608800       0.08585900      -0.13236700 
I      13.64683871       3.68209791      19.16536401       53      -0.32250300      -0.05902700       0.18072100 
I      12.58394001       3.54600143      38.97036518       53       0.31409200      -0.23801400      -0.06930500 
I      13.53453711      14.58226630      18.83400452       53      -0.53704400      -0.12432400       0.21236900 
I      13.35804129      14.46116058      38.32300919       53      -0.13134000      -0.10132400      -0.11213400 
I      18.07048998       3.57690227      19.14030312       53      -0.10697400      -0.30317800       0.14693200 
I      17.75644210       3.14021749      38.55606882       53      -0.11642700       0.10602500       0.01901600 
I      17.93611327      14.41930371      18.93667992       53       0.36410800      -0.18726400      -0.01780200 
I      17.57676112      14.57351915      37.99401180       53       0.45320700      -0.23137800       0.27740200 
I       0.75828746       6.99515463      -0.41545138       53       0.05464400       0.66972200      -0.05638800 
I       0.64700142       7.25393615      19.42203584       53       0.02954900       0.09981300      -0.09950700 
I       0.94185880      18.76654164      -0.86401347       53       0.52214500      -0.13578500       0.07102600 
I       0.83802836      18.14611856      18.88149705       53      -1.19747300      -0.90965000       0.29335200 
I       5.83787588       7.50296478      -0.18829456       53       0.33548600       0.04233500      -0.15645000 
I       5.68734257       7.31376466      19.46760922       53      -0.07358100      -0.23724200       0.11203300 
I       5.55239915      18.07963589      -0.04799245       53       0.49555200       0.02297900      -0.07544200 
I       5.71543638      17.54250423      19.05981086       53      -0.87011700      -0.57005300       0.54411100 
I      11.05659271       7.77775360      -0.68170127       53      -0.55439200      -0.89930000       0.32253000 
I      10.37149512       6.83278527      18.63159037       53       0.33644000      -0.03283900       0.20041800 
I      10.62894089      18.25983054      -0.20093894       53      -0.13106200      -0.06265800       0.02273700 
I      10.50585710      17.51043559      19.44867114       53       0.35128100       0.26576700      -0.28769000 
I      15.57413786       7.56162451      -0.45442463       53      -0.14360200      -0.53746300       0.44999800 
I      15.68906282       7.15936064      18.14962587       53       0.00531600       0.23180200       0.43065900 
I      15.94263886      18.82002047      -0.98861765       53      -0.06733100      -0.32230800       0.37831000 
I      15.28376603      17.59859266      18.76490438       53       0.39682900       0.36316200       0.03736600 
I       3.59015363       8.51835229       9.03313677       53      -1.00459500       1.06491600       0.48313400 
I       3.47347158       8.61301029      28.24135652       53       0.02568400      -0.58582400       0.09560700 
I       4.02279484      19.13541489       9.43251603       53      -0.08030800       0.22464200       0.26913600 
I       3.55882653      18.72796912      28.23999721       53       0.00369400       0.13512900       0.19890600 
I       8.27361768       8.54705308       9.45070374       53      -0.06999400       0.05953600       0.04143100 
I       8.48389503       7.57580499      29.21403071       53       0.34690500       0.24327800      -0.18142400 
I       8.45592890      18.89010964       9.13755749       53      -0.04883500       0.56042400       0.11497300 
I       8.19860393      19.11942231      28.00070575       53       0.03864800      -0.46171800       0.10315600 
I      13.46323202       8.30618918       8.87020561       53      -0.05652200       0.02100000       0.36306700 
I      12.89503943       7.77269840      28.91302499       53       0.16877700       0.29521500       0.13720400 
I      12.76362983      19.48028699       8.83838841       53       0.17656600      -0.24736300      -0.15695300 
I      12.52818748      18.93388665      28.38648400       53       0.40603200       0.20958400       0.25148300 
I      17.62622191       7.96199870       9.60444381       53      -0.02745100      -0.19848800      -0.36019500 
I      17.75065323       7.91605995      28.93990976       53      -0.06962100      -0.10460100      -0.30735900 
I      17.41117222      19.56134694       9.04372843       53       0.52091100       0.37781800       0.32095100 
I      18.17031809      18.64014403      28.67436605       53      -0.00601700       0.32641800       0.20919500 
I       0.90174919       1.32803973       9.64738303       53       0.27849200       0.08008500       0.18760800 
I       1.70721293       0.96006811      28.74285233       53      -0.28925000      -0.23993600      -0.12971200 
I       0.87862709      12.58334678       9.16729054       53       0.20704600      -0.66591500       0.00794400 
I       1.09999896      11.57300759      28.04367346       53       0.11851400       0.31369200       0.59653500 
I       5.92091783       1.75286390       9.58831471       53      -0.31938800      -0.36389600      -0.03202000 
I       6.34898805       1.03771406      29.07271894       53       0.19283700      -0.09391200       0.05967800 
I       6.38108222      11.69927752      10.12209916       53      -0.42135100       0.11618800       0.00505400 
I       6.56271378      11.76012257      28.47350470       53      -0.35960200      -0.30380500       0.17348600 
I      10.47734292       1.00766377      10.17217577       53      -0.23808800       0.00586500      -0.06999400 
I      10.88307088       0.99224380      28.98967109       53      -0.27340300       0.31342900       0.45839200 
I      10.51668742      11.97257542       9.12491704       53      -0.07303800       0.20571100       0.13399800 
I      11.16315945      11.52996917      28.65543189       53      -0.44503600       0.37130400       0.24668400 
I      15.18713780       1.66048943       9.69810001       53       0.21589100      -0.41309900      -0.20004200 
I      15.94462873       0.56717998      28.95922696       53      -0.23143500      -0.03378000      -0.09723200 
I      15.66800915      11.54467413       9.41364768       53       0.17852600       0.55553900      -0.03091900 
I      15.42874716      11.56496858      28.32421285       53       0.68666600       0.36020900       0.73148400 
I       1.06849606       0.34809458      17.52756257       53      -0.45934100       0.61278500      -0.44366600 
I       1.54589055       0.52389209      36.38077035       53       0.10414700       0.16714700       0.02532800 
I       1.20031521      11.02466944      17.07322143       53       0.24237700      -0.02425600       0.31921300 
I       0.88457802      10.93970048      36.14691517       53      -0.05682200      -0.20252800       0.19092400 
I       5.97737850       0.23543941      17.90065519       53      -0.04113800       0.01151800      -0.21323500 
I       6.22163185       0.64358153      36.68582160       53      -0.15458600      -0.38193200       0.18514900 
I       5.64642562      10.99777485      17.48519202       53      -0.06684100      -0.00863200      -0.71713000 
I       5.44546017      10.68896878      36.35321378       53       0.32200700      -0.04939600      -0.18220900 
I      10.33975846       0.06015066      17.62562279       53       0.38177400       0.01679300       0.17966400 
I      10.36970267       0.03479414      36.66595341       53      -0.00301800       0.28477700       0.07344500 
I      10.39948482      10.51490381      16.88394274       53       0.47825000       0.39213300      -0.18728500 
I      10.76278429      10.61850540      36.03470197       53      -0.12948900       0.48964500       0.16227500 
I      14.70405265       0.02181484      16.89186487       53       0.57006100       0.34680300       0.36866800 
I      15.11535145       0.42054095      36.87514646       53      -0.39384200       0.51608200      -0.19795100 
I      14.90632242      11.52680366      16.92391190       53       0.08378500      -0.88152100      -0.07560800 
I      15.68386422      10.83454805      36.14166944       53      -0.23259300       0.52005700       0.20654500 
I       3.15951799      10.92226904       1.29865437       53       0.08203300      -0.09086600      -0.04661100 
I       3.85749568      10.63770768      21.00426547       53      -0.38933900       0.06051900       0.34982600 
I       3.69784004      21.61228971       1.91022816       53       0.09398400      -0.05016400      -0.07670900 
I       3.84044237      21.25214791      21.21183008       53      -0.05076800      -0.07690800      -0.27387000 
I       8.46769915      10.94907916       1.20360252       53       0.20137300      -0.18630700       0.36041300 
I       8.96663642      10.34290138      20.57308473       53      -0.30732600       0.31253800       0.56412100 
I       8.11802230      21.66382483       2.02209662       53      -0.12211900      -0.16335900      -0.13961400 
I       8.79219234      21.32160064      21.31131935       53      -0.32265000       0.11045300       0.00126700 
I      13.25522248      11.09957318       1.64618814       53       0.07435500      -0.51272500      -0.35924600 
I      13.38257967      10.41786995      20.64111824       53      -0.36349600      -0.33246000       0.16871400 
I      13.27685955      21.14434953       1.62642406       53      -0.35550500      -0.11216300       0.24323000 
I      13.32536666      20.82975459      20.86378461       53       0.00713500       0.21907300       0.13368400 
I      18.13194888      10.90908643       2.16545326       53      -0.09902900       0.24346600      -0.66502600 
I      18.03915109      10.49242208      21.29221725       53       0.03292000      -0.01296000      -0.64297200 
I      18.21653185      21.61363921       1.56719172       53      -0.18334800       0.05219300       0.10567500 
I      18.00424990      21.14857873      21.19925642       53      -0.03483100      -0.11794400      -0.21029400 
I       0.96323657       5.19001703      11.47943389       53       0.10919800       0.32045200       0.02000600 
I       1.21090687       4.80398342      30.23109772       53       0.29525100       0.07497200       0.46602500 
I       1.13410362      15.74936670      11.33393123       53       0.15297900       0.17138900       0.22209300 
I       1.33854004      15.28940954      30.26165382       53      -0.06016400      -0.22174900      -0.11939000 
I       5.83247889       5.56105496      11.10679503       53      -0.21239000      -0.19582200       0.39721600 
I       5.95637198       5.30105556      30.69756269       53      -0.29357600      -0.78576300       0.19841400 
I       5.60904348      15.85923253      11.88471988       53       0.13462600      -0.13669700      -0.49508300 
I       5.82644251      15.26861320      30.37166206       53       0.11155000       0.18965700      -0.12731500 
I      10.52151770       5.60165467      11.27279448       53       0.03322600      -0.39753900       0.39783500 
I      11.54857234       4.62650444      31.30694527       53      -0.23449500      -0.00543500      -0.48250300 
I      10.70617138      16.30376480      10.91158211       53       0.09795300      -0.22584900       0.34331300 
I      11.04914005      15.66860631      30.41907995       53       0.05101500       0.09821600       0.18631500 
I      15.37927852       5.25849545      11.58875168       53      -0.01912000      -0.13071900      -0.09900100 
I      15.98007797       4.44133218      30.97755207       53      -0.37881100       0.33532600      -0.52167800 
I      15.00953115      16.26816627      10.72045106       53       0.63925600       0.36346300       0.10298600 
I      15.76489569      15.55197533      30.73894224       53       0.09269600      -0.09118300      -0.36951800 
I       3.41047362       5.18699589       7.10313864       53      -0.00030800      -1.31307500      -0.14935700 
I       3.38365957       4.43050382      26.40373483       53       0.19320800      -0.13213300       0.30447500 
I       3.42884500      15.42648328       7.58951109       53       0.11130400       0.06714900       0.06807900 
I       3.42780194      14.98257664      26.38331957       53       0.39951300      -0.24544700       0.06114100 
I       8.39056786       4.51888286       7.59909701       53      -0.10642200       0.28781700       0.42067400 
I       8.05195705       4.25691815      26.92747861       53       0.47164800      -0.68100800      -0.11928400 
I       8.36444918      15.06894813       7.32420015       53      -0.04634900       0.20120800      -0.04640600 
I       8.38974284      14.72682805      26.75379374       53      -0.24720000      -0.01784100      -0.73149100 
I      12.46800244       4.05044177       8.06245638       53       0.32819100       0.28286400      -0.43536400 
I      13.18710647       3.77244913      26.91120710       53       0.21085300       0.11094800       0.18233700 
I      13.45100506      15.25694412       6.89074080       53      -0.37069200       0.07295900       0.16314300 
I      13.23540340      15.08484249      26.77310701       53      -0.07874200      -0.02090800      -0.03661100 
I      17.92697423       4.24975326       7.90399014       53       0.70115300       0.02808500      -0.38660300 
I      17.72677683       4.46381882      26.31843586       53       0.07936300      -0.03101200       0.48415100 
I      18.13406839      15.51997545       7.48247193       53      -0.11980100       0.38420000      -0.09130300 
I      17.44445088      15.42824626      26.40561862       53       0.21361900      -0.49861200      -0.10277000 
I       1.12374768       3.47578065       3.95404926       53       0.26250200      -0.11418500      -0.20893600 
I       0.82884709       2.92949718      23.35796418       53      -0.02638200       0.05830200      -0.53355500 
I       0.94851296      14.41484468       3.40225095       53       0.13996000       0.13598600      -0.13687200 
I       0.67973203      14.01628357      23.62078730       53       0.71509300      -0.93187800      -0.29641900 
I       6.05254055       3.93179343       3.85343443       53      -0.02374600      -0.18874900       0.16476000 
I       5.81579683       3.47893928      23.19831246       53       0.23152500       0.18639900      -0.10587000 
I       5.45706443      14.25167584       3.69048461       53      -0.32717800      -0.38383100      -0.12986900 
I       6.14338973      13.73086479      22.99365308       53      -0.03786000       0.08367000      -0.13635100 
I      10.38784716       3.08549132       4.71987483       53       0.43511800      -0.15247900      -0.76741300 
I      10.61713626       3.38652847      23.14999786       53      -0.15554100      -0.30854900      -0.00257100 
I      11.26086610      13.72489422       3.42480340       53      -0.20484100      -0.12795100      -0.14011900 
I      10.93644657      13.44289730      22.58962329       53      -0.00353300      -0.37181400      -0.10806800 
I      15.34657246       3.75113912       3.98229237       53       0.39675300      -0.48135900      -0.00211300 
I      14.87951230       2.52953845      23.48653335       53       0.15360900       0.20227700       0.02499300 
I      15.94429676      14.46931451       3.47779506       53      -0.16531800      -0.12834100      -0.32476700 
I      15.81986740      13.48489659      22.77250514       53      -0.22134400       0.18850100       0.29504500 
I       3.68367036       7.50160153      15.76852380       53       0.06225400      -0.12587000      -0.20007300 
I       2.78504052       7.09455944      34.32394540       53       0.33832100      -0.20304800      -0.36109700 
I       3.20285008      18.56343900      15.39931859       53       0.15172700      -0.15476300      -0.37018100 
I       4.49904020      18.39599479      34.38280255       53      -0.00129800       0.16327200       0.32860500 
I       8.06171092       7.19989946      15.26564118       53      -0.34164800       0.23815400       0.00065800 
I       7.87860218       6.93426342      34.28070858       53       0.02116200       0.12931600       0.51240800 
I       7.96529680      18.68982090      15.65914218       53       0.28653700      -0.15495600      -0.11391700 
I       8.64266968      17.81818976      34.53878588       53      -0.72216500       0.32371200      -0.06288400 
I      13.36254058       7.32205412      14.87347494       53      -0.19029900       0.41994600       0.17554300 
I      13.21158985       7.36996211      34.19773440       53      -0.40196900       0.45611000      -0.54610500 
I      13.09047628      18.44233525      14.98367961       53      -0.26544500      -0.50707400       0.01425100 
I      12.69192892      17.76845691      34.45012104       53       0.44679200       0.10930500       0.09205100 
I      18.63267468       7.99737722      14.95395442       53      -0.38308200      -0.07294200       0.30263300 
I      17.45427547       7.61580067      34.68857078       53      -0.00286400       0.11003600      -0.42700600 
I      17.65287096      18.80587043      14.94470735       53       0.09336600      -0.03125300       0.82635600 
I      18.11804046      18.98398781      33.89831782       53       0.04499300      -0.15600000       0.60683200 
I       0.94672345       7.92645812       5.23124826       53      -0.07751700       0.07961200       0.68575600 
I       0.36617917       7.95156321      24.67318569       53       0.20536000      -0.42078100      -0.11928900 
I       1.52865161      19.13652964       5.91252720       53      -0.40492800      -0.48655700       0.14269300 
I       0.76881331      18.67664713      24.96380797       53       0.23641200      -0.18337400      -0.35731300 
I       6.44074867       8.42094422       5.63733275       53      -0.37516600       0.00276900      -0.27186000 
I       5.88693791       7.68935983      24.96882585       53       0.32566700      -0.13188500      -0.07317600 
I       6.26763738      18.47667956       5.44194598       53       0.24041000       0.21292600       0.57893300 
I       5.11461631      18.48499848      24.45865164       53       0.42335500      -0.65533800       0.25449000 
I      10.76319876       8.56575446       5.93009419       53       0.13117200       0.20249300      -0.83253700 
I      10.66101345       7.46202524      25.52367476       53       0.04177700      -0.12585500       0.08645100 
I      10.86488415      18.88114445       5.03469763       53      -0.06144300      -0.00125200       0.39370900 
I      11.02621340      18.34868887      24.68362511       53      -0.28840200      -0.35145000      -0.21546000 
I      15.41607234       7.65166340       5.72805817       53       0.30123300      -0.00113900      -0.07265700 
I      15.27960755       7.67791369      25.07541911       53      -0.13543300       0.01301800       0.13831300 
I      16.24358860      19.60273140       4.85237168       53      -0.56793800      -0.87644800      -0.11971600 
I      15.32310955      18.99602030      25.14021639       53       0.34258900      -0.40762600      -0.22177700 
I       3.80130805       1.81223080      13.11575816       53      -0.51971500       0.32832200       0.07075900 
I       3.44526973       1.83222078      32.45619386       53       0.43634700       0.43444100      -0.12442900 
I       3.49531196      12.71967505      13.69621602       53      -0.04556700      -0.29660900      -0.13392600 
I       3.08314788      12.04309085      32.15346051       53       0.24896600       0.06453000      -0.18387600 
I       8.92868561       2.33837106      13.93160042       53      -0.70984200      -0.36939600      -0.47892300 
I       9.03348348       1.46507516      33.09517199       53      -0.61696600       0.49052100      -0.32241100 
I       9.41167746      12.07133887      13.39475359       53      -0.50425400      -0.20356400      -0.52007300 
I       8.39914215      12.08254929      32.53629718       53      -0.28238300       0.01249800      -0.24147000 
I      12.94522309       2.05363587      13.98966595       53       0.18929000      -0.17133700      -0.20946600 
I      13.10401443       1.01504179      33.23598089       53       0.12455400      -0.06416000      -0.64530100 
I      13.36963966      13.19628970      13.18858561       53       0.28098400      -0.32512000       0.35004100 
I      13.16803678      12.72953008      32.85194304       53      -0.00571000      -0.20283000      -0.08369500 
I      17.41669886       1.80381267      13.79628771       53       0.45702900      -0.22381600      -0.56376600 
I      17.99194241       1.68960567      32.28472475       53       0.20095000      -0.20914400       0.12985400 
I      18.34602721      12.85571850      13.22750385       53      -0.30499500      -0.12773000      -0.15256600 
I      17.88437386      12.27105010      32.06720885       53       0.21572300      -0.21118900       0.26537500 
H       2.26914815       0.19072542       5.81427644        1       1.50220200       1.00173500      -1.22503700 
H       5.13791127       0.88523116      24.26254887        1      -1.17343700       0.50894200       0.57016800 
H       3.60390785      12.22435018       4.05761353        1       0.08988100      -2.22901900       1.88705900 
H       3.31122302       9.90169374      24.30086014        1      -1.12001900      -1.54378100       0.01485400 
H       8.27588648       1.86377279       6.69769747        1       1.72654500       1.43839900       0.86951400 
H       7.75794041      -1.00326073      25.20461785        1       0.70280800      -0.07197800       1.07180300 
H       7.77452424      11.59952012       4.61213342        1       0.97453100      -1.03023600      -0.98457900 
H       9.57663973      10.41038783      24.68248481        1      -2.32066000      -0.78010900      -0.06448300 
H      14.35561038       0.30347390       5.78962708        1      -0.46560500       0.51490100       0.02377500 
H      12.19586644      -0.10063251      24.87356479        1       0.19098600       0.07595600      -0.20067600 
H      13.99478990      11.09303688       4.48272253        1       0.34598500      -0.05485400       0.11703700 
H      13.40759342      12.46701831      25.05591726        1      -0.09700300      -1.23708200       1.09452100 
H      19.18665929       1.21210904       6.78959854        1      -0.24640100       0.36111300       0.17739300 
H      19.14230673       1.51505944      25.74182318        1      -2.10060400      -1.74712000      -1.49384300 
H      18.68434042      10.69745762       5.08560024        1      -0.49390300       0.61607100       1.02867600 
H      17.42009616      11.05182431      24.08231198        1       0.24397700       0.49663900       0.43400500 
H       1.81121819       8.25070380      11.94922054        1      -1.29094300       1.07549200      -0.59807800 
H       1.38801753       7.66567495      31.56287557        1      -0.88966100      -0.33358500       0.34553500 
H       0.53439142      20.26819062      11.61565118        1       0.80773800      -0.00099300       0.34515600 
H       2.98640572      20.59178611      31.62876108        1       1.23133200       0.29539900       0.89974500 
H       5.42916410       8.44341515      13.60461549        1      -0.41442300       1.45225100      -1.89567700 
H       6.59909510       8.37231827      31.30516461        1      -0.24553900       0.29654300       0.70834100 
H       7.23111655      19.35621220      12.98240388        1      -1.66300900       0.01874500      -1.13115500 
H       6.89282004      18.81496920      31.52770231        1      -1.21775100       0.13569300       0.41784900 
H      12.19985108      10.17594433      11.91101633        1      -0.30840600      -1.54435000       0.81966600 
H      10.65325436      10.73082959      31.78479844        1       0.31945000      -1.81780600       0.70932900 
H      10.60145602      18.65250162      13.05342219        1       0.10634400       0.30281900      -0.49473100 
H      10.53788743      19.48966469      30.68933118        1       0.41627800       0.79935100       0.38096700 
H      16.21819181      10.54822470      12.14003534        1      -0.24152100      -1.80943400       0.97487800 
H      15.25638625       9.95052692      30.69269607        1      -0.15715700       1.25387000      -1.41422200 
H      15.12120318      19.36898033      11.09926380        1      -0.71636400       0.11558000       1.09346500 
H      16.07975188      19.05267446      30.63439679        1      -1.16726000       0.32685800       1.11490800 
H       2.67439583       7.15633853       2.65448639        1      -0.55016700       1.03574800      -0.57631000 
H       4.35360825       6.91467515      22.66913240        1      -0.89998100      -0.43583900       0.77873200 
H       2.35384996      17.39109483       2.34625686        1      -1.72917800      -0.95681100       0.21251600 
H       3.04050527      17.07246909      20.75219115        1      -1.32558800       0.29932800       1.84493900 
H       8.19547967       7.13259079       1.85464652        1       0.01493800      -0.33547300       0.24616600 
H       9.26170595       7.22292334      21.69297742        1      -0.48472600      -0.10040500       0.07177900 
H       9.13905529      17.29172931       3.72407167        1       0.18423400       0.38999700      -0.07550600 
H       7.94365188      16.61677747      21.39033738        1       0.41381800      -0.08364600      -0.64841200 
H      12.13175177       6.03088777       2.42125391        1       0.70886000       1.59321200       0.39391800 
H      12.52174546       6.27021360      21.35046938        1       0.71044500       0.50728800       1.46845200 
H      13.63904917      17.16150715       1.44938804        1      -1.56845300       0.77621000       2.38613200 
H      14.79984506      15.85796652      21.99189408        1      -0.25798000       1.11365000      -0.49577700 
H      17.68237713       7.17929464       1.66479032        1       1.10777600      -0.62160200      -3.07971800 
H      17.27058725       7.28941485      21.56265214        1      -0.54926800      -1.15961300       1.00174600 
H      18.13424518      19.07702623       2.11709249        1       0.18258800      -1.62151600       0.59523700 
H      19.03050702      17.70055011      21.88929331        1      -1.63733200       0.06640100      -0.14930700 
H       1.22781384       3.39763969      15.58122515        1      -0.91356600       0.58597000      -0.19456700 
H       1.04870447       4.61994359      34.11577086        1      -0.57153900      -0.35041100      -0.76244400 
H       0.56993397      16.16600060      16.23237720        1       0.13590100      -1.62135900      -0.13896600 
H       2.10645860      15.66714780      33.91646035        1      -0.83880500      -0.84934400       0.58056600 
H       5.19448391       3.96971183      15.07703920        1       0.45333600       0.52254400       0.63886200 
H       5.48878931       4.32047397      34.06036798        1       1.54292700      -0.79321200       0.78680100 
H       6.10020693      14.59685340      14.50200583        1      -0.63745200       0.78749200       1.20318200 
H       6.98528880      15.25669366      34.03944690        1       1.48732600      -1.20177900      -0.56975300 
H      11.88753280       5.19729584      15.80976683        1       3.09684300       1.54863300       1.38587800 
H      11.98794039       4.09607801      35.74449219        1       0.07673400      -0.72956900      -1.81552100 
H      11.44579576      13.65608284      15.24289721        1       0.47925600       0.95195100       0.79322100 
H      10.75717515      13.44722569      35.30703838        1      -0.17929700       0.84388900      -2.27076700 
H      16.91272014       4.51382864      14.98734014        1      -1.41521900      -0.18876600       0.94380100 
H      15.26167029       2.83286503      35.19889330        1       0.56102800      -0.33970500       0.92732000 
H      16.92992568      15.83413922      15.12544318        1       2.35163900       0.05067100      -0.64557900 
H      16.42626813      14.99742205      33.81833530        1       0.56097600       0.95394200       1.13695500 
H       4.05552741       1.14500859       5.71728089        1      -0.28075600      -0.16571400      -1.86885100 
H       3.25237864       1.00255161      24.48340118        1       0.85668700      -0.32362000      -1.32881500 
H       2.31088815      11.29407109       4.04719768        1      -1.36721500      -0.00524100       1.02312800 
H       4.55008129      10.10117121      25.61479305        1      -0.87110100       0.42667300      -0.67886900 