768
Lattice="20.1714166062 -0.142051317602 0.0266369531723 -0.160906467768 23.049548203 -0.0814172823061 0.0226678295782 -0.130686839214 39.2546240567" Properties=species:S:1:pos:R:3:Z:I:1:forces:R:3 energy=-99809.3172323 stress="6349.319997 2205.948221 1280.598309 2205.948221 3268.986648 -999.001058 1280.598309 -999.001058 4824.596496" pbc="T T T"
I       4.18863861       3.48461285      20.26444909       53      -0.42382100      -0.04554100      -0.04841900 
I       3.21661568       3.71883362      38.96423050       53       0.38030300       0.26041100      -0.07298900 
I       3.47623532      15.62640126      19.39748102       53       0.11470200      -0.18273300      -0.18121300 
I       3.94975249      14.98584211      39.38788549       53      -0.16560600      -0.07319900       0.09372900 
I       8.51974607       3.19532684      19.91103754       53       0.07376900       0.29152700       0.05492200 
I       8.90163668       4.11785228      39.56649191       53      -0.23666700       0.27863300      -0.56105700 
I       8.71704083      15.07238060      19.94314175       53      -0.10612900       0.41240900      -0.28226900 
I       8.53899699      15.39089578      39.26005194       53      -0.31141400       0.02346400       0.27334800 
I      14.04490184       3.35104993      19.98809407       53      -0.11370000      -0.02345800      -0.26140700 
I      13.78875712       4.13438978      38.43541394       53       0.55633800       0.21178000       0.22864500 
I      13.50630181      14.82494911      19.84732332       53       1.04931000       0.27440500      -0.86437800 
I      14.02350317      15.48160854      38.81872601       53       0.42555000      -0.50646200       0.19779400 
I      19.04070851       3.22447622      19.36407345       53      -0.18296300       0.03405300       0.18168600 
I      18.74940219       3.37058058      39.66062986       53       0.23683800       0.53786400      -0.35659800 
I      18.72881475      14.45888112      19.62706441       53      -0.18382000       0.54137800      -0.85736000 
I      19.08083489      16.13899528      39.71492739       53       0.02146000      -0.64315200       0.44079200 
I       1.36593281       7.56912077       0.32789561       53      -0.03142600       0.42445300      -0.20867800 
I       1.60186410       7.56177203      19.66520157       53      -0.41768800      -0.19152100      -0.12270500 
I       1.52074417      19.61400806       0.63849740       53      -0.28677500      -0.01718300       0.07151100 
I       0.61589070      18.70368112      19.26145643       53       0.26090300       0.25345700      -0.35705200 
I       6.10605684       7.38681771       0.08065475       53      -0.03807200       0.27617000      -0.09090600 
I       6.04487163       7.79945737      19.10190512       53      -0.15397400      -0.47940300       0.18876100 
I       6.09322531      19.11517594       0.20592924       53       0.03844900       0.43828000      -0.30847800 
I       6.09026427      19.17121507      18.91588366       53       0.02847600       0.04155200       0.07786200 
I      12.02741009       7.98138848      -0.25508794       53      -0.95234100      -0.38586100      -0.00977800 
I      11.11703860       7.53226003      19.42015299       53       0.16926800      -0.00219400       0.10157400 
I      11.27578904      19.06699217       0.02156754       53      -0.23631300       0.40359500      -0.20442600 
I      11.16972507      18.60484362      19.44398431       53      -0.02589300       0.52503600       0.18618900 
I      16.76941043       7.78321308      -0.24382499       53      -0.75743200      -0.07901900      -0.19693100 
I      16.53027358       7.48768173      19.82037762       53      -0.07353700       0.03671600      -0.38771700 
I      15.93685489      19.95875302       0.11489737       53       0.41404800      -0.51588600       0.25425600 
I      16.35718104      19.10293392      19.06815773       53      -0.23811500      -0.12473900       0.40814700 
I       4.06237883       9.60259779       9.88290950       53      -0.33370800      -0.04277400      -0.23751300 
I       3.73658020       8.88609379      29.24886961       53       0.01963700       0.45410000      -0.14536500 
I       3.51775519      21.04913996       9.70377263       53       0.26692200       0.08325100       0.12695700 
I       3.28012684      20.97044024      29.42963516       53       0.48817300      -0.30431400       0.24688000 
I       8.95579538       9.59334686      10.07803373       53       0.04806900      -0.03538800      -0.22639500 
I       8.19167329       8.75870886      29.17823454       53       0.30583600       0.03981000      -0.00495900 
I       8.58064326      21.33285407       8.92967334       53       0.20890500       0.44542600       0.12541400 
I       8.64502056      20.80262122      29.44305621       53       0.01062700       0.03447000      -0.05772900 
I      14.29466031       9.39013001       9.92050480       53      -0.45734000      -0.61029400      -0.80036200 
I      13.91330120       8.68063492      29.33001130       53      -0.04011800       0.06725800      -0.00793400 
I      13.76222170      21.25129278      10.05326064       53      -0.03445200      -0.66874800      -0.39723300 
I      13.65891674      20.75039684      29.03631273       53      -0.11307200      -0.17816400      -0.14995100 
I      18.35136053       9.35165407      10.28304088       53       0.58748400       0.04283700      -0.42077900 
I      18.48549639       9.36110185      29.38885711       53       0.22191100      -0.45511400      -0.06736500 
I      18.74759427      21.20766661       9.43525639       53       0.22359600      -0.00322400       0.20732600 
I      18.58676033      20.91789883      29.16952651       53      -0.01530200      -0.31215600       0.04363300 
I       1.69907292       2.36775369       8.98008877       53      -0.11207800      -0.25806900       0.14752900 
I       1.04391473       0.95972600      30.39641255       53      -0.09458800       0.94049800      -1.05776700 
I       1.30803603      13.33987525       9.51714715       53      -0.28789500       0.31093400       0.31769800 
I       1.46862650      13.13535401      28.97787513       53      -0.16095400      -0.12905700       0.19426000 
I       6.30733938       2.21323968       9.21110192       53       0.38447400      -0.71476100      -0.10541300 
I       6.68798258       1.48885753      28.94965509       53      -0.57010500      -0.14646200       0.31576300 
I       6.44263977      13.76904516       9.57416535       53      -0.15520000      -0.31121400       0.01724400 
I       6.39487974      12.73897833      28.82349477       53      -0.31161100       0.05236800       0.32805200 
I      11.64541899       1.65199566       9.90756552       53      -0.17192500       0.36959300      -0.16402900 
I      11.54066562       1.77246596      29.61359073       53      -0.04969000       0.03957600      -0.04549400 
I      11.26321963      13.55052475       9.93028515       53      -0.15855800      -0.02440800       0.17065600 
I      11.09516025      12.69921767      29.32132917       53       0.23552900       0.15229000       0.21115900 
I      16.19802965       1.95564552       9.77169737       53      -0.08846700       0.16823200       0.14280400 
I      16.90513870       1.42220609      29.61382591       53      -0.03554100       0.14289500      -0.11105400 
I      15.72142711      13.56368160       9.79927921       53       0.73031100      -0.54700900      -0.17906400 
I      15.87682073      12.78641096      29.23709693       53       0.46273700      -0.12801500      -0.02994300 
I       1.69690032       0.66992921      17.37252451       53      -0.20414600      -0.40492200       0.33377000 
I       1.43338201       0.30812562      37.03636884       53      -0.03533600      -0.08708100      -0.00968500 
I       1.15319876      11.73597012      17.18276911       53      -0.23512000      -0.01333900      -0.12132500 
I       1.09612150      12.24378587      37.53845521       53       0.19248800       0.37585700      -0.12562100 
I       6.30385202       0.45574366      17.62030412       53      -0.06737900      -0.47261900       0.10511600 
I       6.16912561       0.44789037      37.28056578       53       0.30096600      -0.22100300      -0.58802600 
I       6.17216435      11.78050491      17.67534864       53       0.14182700       0.33141000      -0.10882400 
I       6.27913280      11.70388767      37.36150751       53      -0.27058300       0.37268400      -0.01719700 
I      11.51032581       0.37297433      18.01250865       53      -0.14120500      -0.14060500      -0.21862600 
I      11.03064412       0.16447671      36.92393313       53       0.10313000       0.18958300      -0.24460900 
I      11.07479660      11.66083858      17.34427234       53       0.33572200      -0.06016800       0.32288900 
I      10.87054784      12.23387912      37.31543418       53       0.13985300      -0.40907500       0.16877000 
I      15.65338321       0.34805619      17.60114851       53       0.46071700      -0.11110300       0.36246600 
I      16.13041054       0.69196091      37.68010661       53      -0.31021800       0.23048400      -0.25342800 
I      16.50862833      11.23110195      17.71103553       53      -0.00645000       0.52057000       0.18012700 
I      17.09333380      12.02524370      37.16667234       53      -0.29258300      -0.03925600      -0.12507300 
I       3.77046020      11.20173189       2.78482974       53      -0.27002600       0.30540500      -0.19681700 
I       3.88564249      11.13751621      21.28465890       53      -0.68716400      -0.59607300       0.43429000 
I       3.98242342      22.86610238       2.07728554       53      -0.11560100       0.18914700      -0.26685400 
I       3.25514861      22.03483984      21.17246356       53       0.34105800      -0.39093200       0.28651100 
I       8.80801675      11.04436562       2.12389036       53       0.07461700       0.25788500       0.11234200 
I       8.27739020      11.31466387      21.82675664       53       0.05240900      -0.30600200       0.24287800 
I       8.59395449      23.15564326       1.86778917       53       0.11972400      -0.06132200      -0.08202500 
I       8.79924344      22.35602596      21.68349211       53       0.37833300      -0.04984600       0.27521800 
I      13.67680318      11.39263938       2.26133642       53       0.16734200       0.23562300      -0.14644900 
I      13.30849835      10.95330267      21.94607072       53       0.52495800      -0.51131400      -0.07214200 
I      13.17494682      23.15962067       2.02794035       53       0.15541600      -0.56330700      -0.25193100 
I      13.69479944      22.80531811      21.89534343       53       0.11624300      -0.47140800       0.03026300 
I      18.66667637      11.26895419       2.25412652       53       0.24540000       0.31193200      -0.39955000 
I      19.16729775      10.77952530      21.32027119       53      -0.03859200      -0.27724500      -0.03297800 
I      18.01859132      23.16784280       2.21789674       53      -0.14275200      -0.14981900       0.32366100 
I      18.52339215      22.06778118      21.89637741       53       0.08676700       0.28505400      -0.51788600 
I       1.46196156       5.98537000      11.23853875       53      -0.11108700       0.39021600       0.21107900 
I       1.61544677       5.97716342      31.26434830       53      -0.03353600      -0.50187400       0.15732800 
I       0.73495508      17.78606450      12.01051930       53       0.21685700      -0.53494900      -0.57631500 
I       1.06471455      16.74524653      31.37357120       53       0.17967600       0.10690400       0.39797500 
I       6.56266665       5.77537943      11.67818316       53       0.44449600       0.84120300       0.00093800 
I       6.22851016       5.48817588      31.17548386       53      -0.28954500       0.15530000       0.10382700 
I       6.30404369      17.65774194      11.76049249       53      -0.21263000       0.28600500      -0.01820200 
I       6.23620079      17.21871397      30.99326679       53      -0.15778000      -0.22485900       0.40239800 
I      11.14030320       5.81634501      11.84927612       53       0.63258000       0.66946300       0.63957200 
I      12.02487487       5.38022940      31.73045147       53      -0.12772900       0.02512500       0.34394000 
I      10.84685535      17.88083652      11.94342236       53       0.13127600       0.02615900      -0.10378300 
I      10.97456457      17.20243445      31.26422812       53       0.01422700      -0.28485400       0.00916600 
I      16.52506948       5.92505921      11.73949167       53       0.17012300      -0.01512700       0.01866900 
I      16.64172607       5.75401392      31.79846635       53      -0.00444300      -0.14587500      -0.18700100 
I      16.62112413      17.47435102      12.23768869       53      -0.15680500      -0.39435000      -0.44260400 
I      16.29396723      16.71232798      31.37754136       53       0.36235400       0.29880800      -0.05330900 
I       4.41600277       5.45679691       7.61847321       53      -0.14904600       0.11440500       0.00548400 
I       3.42460770       4.55676628      27.27043918       53      -0.12873200       0.23308000       0.28901200 
I       3.75512039      17.38812645       7.58825979       53      -0.49490000      -0.80790300      -0.18218400 
I       3.56976304      16.95706885      27.59749973       53       0.00444800      -0.51807900      -0.13961200 
I       9.07988773       5.52317379       7.71414970       53       0.06105100      -0.00046900       0.23866000 
I       8.70592812       4.71437188      26.94005704       53      -0.10764900       0.04186900       0.36589500 
I       8.56756619      16.96715069       7.65229416       53       0.12311500      -0.06872900       0.04755500 
I       8.30942811      16.41898789      27.12872354       53       0.23915000       0.31687800       0.30568600 
I      13.94788365       4.95024204       7.53388353       53      -0.22647500       0.41046100       0.41179200 
I      13.41946908       4.66675897      27.33954192       53       0.48341200       0.09099100       0.29487600 
I      13.85362344      17.23092387       7.66174194       53      -0.34316400      -0.34522400       0.42696500 
I      13.63340701      16.64650435      27.45013553       53       0.39652700      -0.40378300      -0.48638700 
I      19.36641908       5.35655763       7.17583356       53       0.06524900       1.24345500       0.56235800 
I      19.33413874       4.69948171      27.81690389       53      -0.34348100      -0.14873400      -0.12679900 
I      18.83617691      16.55430486       7.67213978       53      -0.18925200       0.20475700       0.31229700 
I      18.77805530      16.37703184      27.50686053       53      -0.10344400       0.35872000      -0.86210900 
I       1.30922231       3.26050812       3.89195621       53      -0.01584100       0.03608500       0.21904500 
I       1.73448836       2.96171630      23.98058172       53      -0.47422700      -0.40873700      -0.50887500 
I       0.87914896      15.47215662       4.50341467       53       0.08535200      -0.02072400      -0.44279600 
I       1.69937856      14.63581016      23.28664920       53      -0.18613700       0.03768700       0.03000300 
I       6.42954404       3.35919642       3.90368227       53      -0.04430600      -0.02038000       0.42266500 
I       6.56196627       2.70168432      23.92885568       53      -0.07713400      -0.11638300       0.26838100 
I       6.03587971      14.84905498       3.99208152       53       0.14384300      -0.11756600       1.06405500 
I       6.28516575      14.93432535      23.82936029       53      -0.09437100      -0.33436900      -0.17394300 
I      11.44618162       3.25030505       3.24811587       53       0.26682100       0.74896000       1.01341700 
I      11.27153811       3.21862770      24.04694514       53       0.09354300       0.26221400      -0.24788500 
I      11.08130095      15.22593419       4.24058119       53      -0.34475400       0.07582500      -0.10603000 
I      11.62758642      14.74497090      23.25892647       53      -0.15527400       0.06909400       0.62104200 
I      16.13693043       4.34082254       4.35892448       53      -0.03467700      -0.05159500      -0.62880900 
I      16.02400674       3.29126338      24.41607985       53       0.26974500      -0.70767000      -0.32910600 
I      16.03892177      15.09696721       3.51385445       53       0.20034000       0.21390700       0.90581300 
I      16.86009003      14.84533451      23.88202914       53      -0.00483900      -0.05608600      -0.61085700 
I       3.38471547       8.00618955      15.19349845       53       0.32883900       0.03410900       0.28783000 
I       3.82336735       8.94163666      35.47646493       53       0.06555300      -0.40676800       0.20928900 
I       3.67558147      20.35779136      14.59811851       53      -0.23125800       0.11375900       0.45126900 
I       3.49380058      19.27853164      35.44431721       53       0.00117400       0.01254400      -0.04024300 
I       8.71123686       8.34092001      15.63963063       53      -0.02706800       0.11582400       0.04792500 
I       8.72205119       8.20915257      35.30673647       53      -0.34347600       0.13713600      -0.17425000 
I       8.64909433      19.92835519      15.41663758       53       0.02315600      -0.18517500      -0.53108100 
I       9.13945359      19.55846208      35.56656331       53       0.00248400      -0.05126300      -0.33806700 
I      13.60546152       7.82000232      15.73723419       53       0.07085800      -0.11594900       0.32041700 
I      13.70178245       8.80203354      35.33285539       53      -0.02487300      -0.22783500       0.01251300 
I      12.91975528      20.15378814      15.10636111       53       0.57224200       0.05595300       0.45517000 
I      14.58425818      20.13405546      35.35465915       53      -0.54721400      -0.37540300       0.01717700 
I      18.15326179       8.44092514      15.24221889       53      -0.75542900      -0.71578100      -0.02825200 
I      19.06237033       8.33940841      35.49128362       53      -0.02495400      -0.25213000      -0.57593400 
I      18.89494397      19.68194627      14.86225431       53      -0.05127800       0.28151200       0.71057800 
I      18.66706593      20.05834994      35.47957517       53      -0.03706200       0.01967200       0.17805000 
I       0.95301134      10.49591479       6.27079982       53       0.10397700      -0.28342600      -0.42334300 
I       0.87598485       8.26176236      25.19305418       53      -0.01359300       0.30370200      -0.32560200 
I       0.57214020      20.31073274       5.66800485       53       0.06270000       0.04711600      -0.24763100 
I       0.57966196      19.75967831      25.61438116       53       0.30886500       0.25086400      -0.29291000 
I       6.49248226       8.52641411       5.35826505       53       0.16508900       0.08481900       0.40447800 
I       6.00663190       8.88319595      24.93450893       53      -0.13733500      -0.08088200       0.42536000 
I       6.11168365      20.48601342       5.36634524       53       0.04163000       0.03630000       0.31693600 
I       6.06105687      20.72893601      25.33600583       53      -0.15677100       0.11020900      -0.04861100 
I      11.52529990       9.27127698       6.25953377       53      -0.12744100      -0.19326100       0.11846600 
I      11.20055389       8.03972041      25.84743119       53       0.07860000       0.50395200      -0.76824700 
I      11.63637320      20.58299120       5.50121877       53      -0.14816900      -0.35243000       0.34764300 
I      11.00781984      19.58056112      25.17040707       53       0.29312300       0.15089300      -0.20445900 
I      16.14495674       9.22986797       6.00228358       53       0.29056900       0.05239900      -0.54044600 
I      16.28375899       8.01502191      25.37679321       53       0.35831600       0.47531400       0.44035200 
I      15.95643114      20.68779016       5.93627761       53      -0.25269400       0.12415400       0.16350000 
I      16.18544055      19.64745603      25.41091566       53      -0.10185100       0.26032400      -0.23466400 
I       3.64516499       2.55539865      13.72056507       53       0.17273400       0.00863400      -0.15456500 
I       3.54094105       2.57259611      33.42825626       53       0.54154800      -0.36006900       0.58506200 
I       3.94122369      14.10208374      13.76958805       53      -0.56857100      -0.80581700      -1.75024600 
I       3.71506446      13.68990305      34.08851598       53       0.36712100       0.42705100      -0.34370800 
I       8.56849656       2.40290287      13.37117134       53       0.07949900      -0.10766800       0.50926400 
I       8.59804587       2.18193116      33.26919604       53       0.41350900      -0.07661900      -0.16448200 
I       8.42935552      13.73313966      13.97946983       53      -0.17653900      -0.12303300      -0.38718100 
I       9.33021811      13.54308588      33.39741707       53      -0.44204700       0.08299100      -0.18255100 
I      13.84961598       1.67107148      13.58044703       53      -0.17885500       0.37865700       0.49339300 
I      13.92960662       1.70931432      33.88746448       53       0.17198100       0.33399500      -0.38285400 
I      13.57147480      14.53499276      14.26720177       53      -0.04812200      -0.25987700       0.01133800 
I      14.02757901      13.86922952      33.42559671       53      -0.02217900       0.02897300       0.05860300 
I      18.93387889       2.50365603      13.44179812       53       0.00850800       0.05295900       0.10897500 
I      19.35353056       1.84489237      33.94025766       53      -0.31257100       0.18431000       0.32652100 
I      18.62021452      13.46247361      14.04967390       53       0.42068100      -0.04124800      -0.57894700 
I      19.17379070      13.05229458      33.18683802       53       0.13136000       0.43333500      -0.21908700 
H       3.00333460      -1.08827961       5.58185176        1      -0.00826600       3.10162800       1.70282900 
H       3.18051126       0.64316794      28.04493009        1       0.98333100       0.53283600       2.99283100 
H       3.49468641      12.07864919       8.18006120        1      -0.38260800       0.83996200      -0.29333400 
H       2.29051585      12.76344474      26.30800390        1      -0.87644800       0.79733900      -0.30992000 
H       8.70008891      -0.42308723       5.38263926        1       1.00645300      -0.19575900      -0.25605600 
H      10.87407768       0.65159727      26.99767201        1       0.01724700       0.67349300      -0.38114100 
H       9.87262459      11.83396634       5.48650680        1      -0.22995500      -0.35095800      -1.42824200 
H      10.12463338      11.82643319      25.01195916        1      -0.26902900      -0.11596100      -0.95900900 
H      15.06621194       1.57701020       6.42000924        1      -2.40684200      -0.05591100      -0.56272000 
H      12.76064429       0.40976772      27.51935534        1       2.71812100       0.67323400      -2.47972000 
H      12.97878654      13.31537153       5.67063228        1       0.24953800       0.01197500      -0.81417700 
H      14.84410782      12.45600084      24.88084443        1       1.61988700      -0.82494800      -2.87956800 
H      18.08794582       0.10899497       6.46721394        1       0.62247700       0.66135500       0.79332100 
H      19.05974704       0.38373997      24.31320277        1       1.71524000      -1.26022200      -2.75685100 
H      18.91150841      13.62883076       5.01918938        1      -1.73762000      -0.86471500       2.16234000 
H      20.04600017      11.65738230      24.33597732        1      -2.20755000      -0.11405400       1.36415400 
H       1.48959520      11.35398109      13.47384016        1      -0.20312600       0.66643300      -1.25084000 
H       0.76750273       9.12435621      33.24900749        1       0.20009900       0.36563400      -1.18182300 
H      -0.40389122      22.86134482      12.01401184        1       1.26359300      -0.35897600       0.36011400 
H       0.13840752      21.14622238      33.67549194        1       1.36466700      -1.04718200      -1.57641600 
H       6.67445482      10.57237455      14.25139780        1      -1.99909300      -0.63195400      -0.75443800 
H       4.72598190      10.42758598      31.77439985        1      -0.19344900       0.01532700       0.28346400 
H       5.89824510      21.19471490      13.10172473        1      -1.62945800      -1.45798300       0.99185800 
H       6.85722100      20.87582467      33.74162846        1       1.37700300      -1.22292600       0.59121100 
H      11.04816897       9.15423705      12.63969636        1       0.53864400       1.08967300       1.25719100 
H      10.74822507       9.25214935      33.36843138        1      -2.26977400      -1.41682300       4.03854200 
H       9.74589755      21.04977506      12.31700900        1      -1.92972000      -3.38915600       1.51390100 
H      12.25308445      20.50779025      31.60613636        1      -0.87874900      -0.37866500       1.06957200 
H      14.25764831      10.84694342      12.37792587        1      -2.38117200      -0.16124400       0.47795900 
H      16.24713240       9.94986450      31.60613740        1       0.17687600       1.02673900      -2.30028900 
H      17.43108125      22.03520349      12.33257985        1      -1.43294700      -0.39181200      -0.82964400 
H      16.13228476      22.21425334      31.06679970        1       0.90975300      -0.54270600      -1.68151700 
H       1.79562385       7.59575254       4.12973789        1       0.73375300      -0.05023700       0.55571000 
H       2.45455638       6.48884571      23.13787597        1      -3.06512200      -0.50833000      -0.22276300 
H       4.16331123      16.96299922       4.01975971        1       1.16784300      -2.61907400       3.16987400 
H       3.09527509      17.36083678      22.03110901        1      -0.21578600       0.78020400       0.30279000 
H      10.12731883       6.17206904       2.50296394        1      -0.47368700       0.72061900      -0.34187100 
H       7.17989282       6.51646899      21.52201477        1      -0.10348800       0.50630900      -0.30653400 
H       8.82302192      19.22683979       4.27887789        1       2.36935300       0.39999800      -1.21648800 
H       8.62254544      19.48204894      23.22595093        1      -1.10912400      -0.67001500       0.53704000 
H      12.11020947       6.95909206       3.33478180        1      -6.45358600      -1.29642000      -0.76400500 
H      13.34375838       5.07802275      21.84113915        1      -0.52989500       0.52921100       0.27048200 
H      12.44954830      18.08285880       2.61979563        1       0.31981600       0.93007100       0.14136200 
H      14.34613459      18.89751339      22.07024906        1       0.73257300      -0.32163500      -0.63038000 
H      18.93615924       8.62516873       3.56153573        1       0.10115900       2.62575500       0.02813200 
H      17.39946813       5.63970813      22.86597805        1      -0.20796800       0.64045600      -0.55792100 
H      17.76305270      19.97859449       4.37681506        1       0.81241400       0.59327300      -0.13268300 
H      18.98543916      19.22663050      21.99568114        1       1.01078400      -0.00654600       0.65223000 
H      -0.22030863       5.13222393      15.82766411        1       2.44153500      -0.28473800      -0.50121200 
H       0.79613616       5.80927083      34.58096911        1       0.94252900      -0.68809300       1.20543000 
H       1.21364216      17.68151731      14.93368507        1      -0.24140800       0.22025800      -0.85858600 
H       0.97251713      16.99140990      35.35178410        1      -0.08518100       0.43914300      -0.51196400 
H       5.95557412       3.90467066      16.75406854        1       0.43276900      -0.02006600      -0.45920800 
H       7.37662293       5.39468753      34.63655963        1      -0.66113500       0.45607100       0.15240500 
H       6.85249348      16.92920106      16.41203907        1       1.75869000       1.15130200       0.97540000 
H       7.43136389      17.26687702      34.90000335        1       2.17550500       2.74933000      -0.75954700 
H      10.44329360       5.49278633      15.33091860        1      -0.12396300       0.72633400      -1.95460100 
H      11.98957650       3.62674084      35.85739927        1      -1.24367500       0.73155000       0.74504000 
H      10.31158936      15.25004939      17.11774220        1      -0.42381900       1.62481200      -1.53416800 
H      10.59671043      16.03849595      36.20067924        1      -2.26697500       0.11606900       1.09118400 
H      15.93190463       3.73419520      15.57205089        1       0.90644300      -0.81125400       0.07487800 
H      17.46974058       4.42913683      36.24351387        1      -0.76704500       0.31376800      -1.21050000 
H      17.11787275      17.27912215      16.87221912        1      -0.81124100       0.27644400      -0.88064600 
H      17.89606859      15.42785287      35.23541864        1      -2.09898300       1.18052200       1.65570200 
H       1.98901890       0.16834223       6.69748527        1      -1.32915500      -0.44879500       0.98242600 
H       2.95846517      -0.52573948      26.79282027        1      -0.92264200      -0.28296500      -0.24345400 
H       4.86364864      12.69745224       7.07222918        1       3.62271900       1.43590100       0.73976800 
H       2.58059237      11.05515716      26.60777271        1       0.23728300      -0.23395500      -0.24702600 