768
Lattice="19.3285688902 0.0746603590825 -0.0516251792841 0.0844147563046 21.657550069 -0.191685568172 -0.101837048669 -0.31734023492 38.2254336107" Properties=species:S:1:pos:R:3:Z:I:1:forces:R:3 energy=-99811.7477886 stress="-3584.895989 2336.556912 206.15435 2336.556912 -2475.899888 -1194.017261 206.15435 -1194.017261 2130.712135" pbc="T T T"
I       3.36713899       4.03417599      19.32587317       53      -0.00244900      -0.23570300       0.11341800 
I       3.54497097       4.12277753      37.98367888       53      -0.18199700      -0.15176000       0.36676700 
I       3.47150740      14.50437727      19.06880135       53       0.36587000       0.17772800      -0.01137400 
I       3.45217379      14.41742722      37.75138526       53       0.07183200       0.50496400      -0.37061800 
I       9.22765584       3.51880013      19.15966950       53      -1.40980100       0.88553900      -0.44716600 
I       8.80166002       3.65632818      38.73857140       53      -1.47280300       1.77587400      -0.84991400 
I       8.85771311      14.49344085      19.05320868       53      -0.36420800       0.44090800      -0.29951000 
I       8.12455270      14.55550740      37.93481537       53       0.00620000       0.04834700      -0.13021800 
I      14.00394648       4.09415505      19.31316224       53      -0.72062000      -0.11440000      -0.08633500 
I      12.72870790       3.86371467      38.70250936       53       0.46380600      -0.24581200       0.16026300 
I      13.65017218      14.88143576      18.70276983       53      -0.16674000      -0.20473900       0.35596600 
I      13.51674332      14.87267639      38.05083964       53      -0.18815500      -0.25787300      -0.11135400 
I      18.04856384       3.72834202      19.00543664       53       0.49708000      -0.06539400       0.25470300 
I      18.04543605       3.29361439      38.15303986       53      -0.51127300       0.69949600      -0.22565600 
I      18.27742064      14.75721408      18.95591667       53      -0.16412200      -0.36620300       0.13319100 
I      17.86114969      15.00372249      37.61750958       53       0.36344600      -0.19796900      -0.02556500 
I       0.78481217       7.30752179      -0.82808937       53       0.26950900       0.16864300       0.67561800 
I       0.68270151       7.71468200      19.48381350       53       0.43631200      -0.69907600      -0.23527600 
I       1.16773549      19.00381764      -0.66232170       53       0.34278000       0.37761900      -0.27974100 
I       0.80232599      18.33447564      18.91305184       53       0.37370600       0.27025600       0.08613000 
I       5.96475633       7.66041917      -0.17329581       53       0.07554800       0.07621700       0.05504000 
I       5.91621071       7.06930722      19.29301863       53       0.30016800       0.14118300       0.01340800 
I       5.56115498      18.35044624       0.31244877       53       0.33537100      -0.11600800      -0.12739600 
I       5.82148351      17.68835878      19.15688323       53       0.14202300       0.41714900      -0.20640300 
I      11.09890767       7.99239739      -0.61651904       53      -0.12591300      -0.31586800       0.26750300 
I      10.61807523       7.20845919      18.63966988       53       0.01562600      -0.38018100       0.17230300 
I      10.89508496      18.02750296      -0.20691310       53      -0.07460000       0.63692800       0.12751600 
I      10.64545565      18.04144020      19.20300083       53      -0.10766000      -0.23506300      -0.05492100 
I      15.62254260       7.23778538      -0.46411778       53      -0.09274600       0.60037200       0.15054000 
I      15.70918460       7.50770001      18.28126295       53       0.40934200      -0.09790800       0.32398400 
I      16.22167576      19.24543458      -0.85325436       53      -0.55635700      -0.06321400      -0.28697400 
I      15.80885542      18.30942089      18.67420739       53      -0.64644200      -0.56510600       0.11713500 
I       3.53099633       8.79994850       9.27433049       53       0.09455300      -0.21832500      -0.36551100 
I       3.48208262       8.61719257      28.22825711       53       0.14870100      -0.47311600      -0.29909700 
I       4.18644635      19.58054256       9.60644552       53      -0.21042700       0.00793200      -0.26665900 
I       3.72747987      18.93609883      28.25819054       53      -0.12466200       0.16491800       0.06800800 
I       8.36955331       8.78887823       9.75758012       53       0.14512800      -0.05076000      -0.22522100 
I       8.60843713       7.76129268      29.11172638       53       0.28814200       0.21814700      -0.10893400 
I       8.58042978      19.46965875       9.29015740       53       0.17615300      -0.07143600      -0.17503400 
I       8.21491300      19.32250327      27.79447529       53       0.33643500       0.15475100       0.05559300 
I      13.50685803       8.42711912       9.00610179       53      -0.19732200       0.56135500       0.38560800 
I      13.26075314       7.93770742      28.78092919       53       0.01008400       0.13744200      -0.05163600 
I      13.13786801      19.77999936       9.02291979       53      -0.06142600      -0.50794400      -0.29442500 
I      12.76686826      19.30100738      28.40882910       53       0.34558100       0.03143600      -0.14077900 
I      17.66925252       8.12849343       9.55743536       53       0.10542200      -0.12482800      -0.68202600 
I      17.74999818       8.14155572      28.96026798       53       0.10395100      -0.23060200      -0.42739600 
I      17.54533890      20.05410373       9.44897564       53       0.29276700      -0.47008500      -0.58292700 
I      18.36538540      19.17855825      28.38566794       53       0.23155900       0.09517400       0.63954600 
I       1.09447368       1.44014901       9.68358803       53      -0.55280700      -0.30776100      -0.27652900 
I       1.77838084       0.97589737      28.66472087       53      -1.04245600      -0.17172500       0.35360600 
I       1.11368131      12.75122441       9.29182168       53       0.25325900      -0.40107500      -0.22815700 
I       1.03808596      12.06660371      27.88194894       53       0.13556400      -0.34489800      -0.32938700 
I       5.81465711       1.80959668       9.63400212       53       0.40361600      -0.47090300      -0.30506300 
I       6.45055306       1.30213083      28.67267024       53      -0.12922100      -0.13600100       0.07557300 
I       6.31534970      11.96275693      10.00332676       53       0.00726200       0.13449900      -0.26884700 
I       6.38051647      11.72926258      28.41029753       53       0.49195600      -0.42779800      -0.16316800 
I      10.44437098       1.22516646      10.12836729       53       0.22820800      -0.01768900      -0.28095200 
I      10.90978003       1.29791649      28.97591281       53       0.19341800       0.17608400      -0.29273400 
I      10.74410291      12.22461392       9.11182446       53       0.41347100      -0.13987300      -0.07800400 
I      11.58085126      12.06670410      28.27899060       53      -0.39772200      -0.34063500      -0.17022200 
I      15.40705909       1.45719927       9.99904648       53      -0.47441100       0.20506300       0.02184900 
I      15.89378688       0.77681653      28.59404061       53      -0.12176700       0.13810300       0.08976500 
I      15.93441561      12.10460364       9.25298026       53      -0.68574200      -0.18726800       0.14968600 
I      15.76044070      11.98636786      28.01845736       53      -0.37215800      -0.02121900       0.23628500 
I       0.77294765       0.46536378      17.26857326       53       0.77864100       0.31643800       0.07759000 
I       1.44587508       1.09015403      36.21558096       53       0.26067600      -0.45156000      -0.22490700 
I       1.39094201      11.00410075      17.21060197       53      -0.18279700       1.09978200      -0.56192500 
I       1.01798468      11.17257694      36.09116048       53      -0.09699900      -0.22150100      -0.28163500 
I       6.10180507       0.33511389      17.75221755       53      -0.25153200       0.19240500      -0.47820700 
I       6.44141969       0.71892004      36.56077993       53      -0.20435800      -0.18935600      -0.01366000 
I       5.84235247      11.42192181      17.24690415       53       0.05064400      -0.35049300      -0.16788900 
I       5.83712440      11.06644288      35.83801364       53      -0.10774800       0.13924900       0.40181900 
I      10.42918577       0.16361621      17.64521543       53      -0.08026600       0.32071100      -0.38236000 
I      10.50681743       0.45529641      36.61398869       53       0.11290600      -0.20171600      -0.07733400 
I      10.47003988      10.70828397      16.82225078       53       0.20412200       0.38208100      -0.24084800 
I      10.43896084      11.17469789      35.76155417       53       0.25318500       0.13053800       0.08305800 
I      15.06688741       0.16226589      16.97082351       53      -0.39045400       0.13800700       0.10885800 
I      15.16703360       0.98831698      36.67488502       53      -0.24569400       0.13610800      -0.76075000 
I      15.09852646      11.64807600      16.70553658       53       0.23643600      -0.40959700      -0.03136600 
I      15.87732320      11.50505022      36.13232657       53      -0.22827000       0.17155200      -0.30623500 
I       3.23585569      10.87223677       1.42148466       53       0.15375800       0.50631300      -0.31128700 
I       3.83355684      11.00301912      20.89070249       53      -0.05678900      -0.16840600       0.47780100 
I       3.93482306      21.89065566       1.92650772       53      -0.06504400       0.23854800      -0.11903000 
I       4.16453611      21.68053013      21.17990644       53      -0.15648900      -0.05762500      -0.12552900 
I       8.52668956      11.05222218       1.42269325       53      -0.03918000       0.33688400      -0.10157900 
I       8.69421402      10.39228224      20.74727318       53      -0.12887700       0.51066800      -0.09566100 
I       8.16184597      22.09693591       2.24045739       53      -0.18368500      -0.25364700      -0.08610300 
I       8.91305758      21.56497433      21.26035290       53      -0.08004000       0.28816100      -0.07509700 
I      13.46851068      11.34701835       1.61928998       53      -0.08095500      -0.24286300      -0.39294700 
I      13.33946446      10.50661665      20.48716117       53       0.13799000      -0.09073200       0.06568700 
I      13.26122752      21.45893574       1.67782423       53       0.15479100       0.24148200       0.12757800 
I      13.56603202      21.37912015      20.84745579       53       0.04792300      -0.05069400       0.03500300 
I      18.24070411      11.20569425       1.89539325       53       0.14580800      -0.00939000      -0.06393300 
I      18.43516216      10.58060972      21.02043075       53      -0.57694600       0.50222000      -0.11155200 
I      18.27248389      21.95211889       1.54969529       53       0.13186500       0.12712900      -0.03922100 
I      18.27545421      21.73379696      21.19976856       53      -0.00310000      -0.04541600      -0.16159100 
I       1.14627306       5.55009061      11.50313694       53      -0.23632100      -0.26389900      -0.07173400 
I       1.56608516       5.13936366      30.27925716       53      -0.48711700      -0.02407900      -0.14574800 
I       1.30529405      16.07805651      11.39636511       53       0.03446000       0.12543200       0.19998800 
I       1.26744470      15.26157478      29.89280646       53       0.31278600       0.70971200       0.25449400 
I       5.35239159       5.28306165      11.10503529       53       1.23240200       1.31861200       0.34461100 
I       6.14647294       4.88713312      30.60068969       53      -0.11388600       0.48018000       0.24765700 
I       6.01064264      16.40752995      11.50553543       53       0.09185800      -0.66968600       0.54284100 
I       6.32120863      15.47347285      30.02585640       53      -0.64469400       0.53430000       0.28852300 
I      10.64827735       5.65837712      11.32596338       53       0.26593200       0.04528800       0.24999000 
I      11.61398334       4.75409105      31.02576430       53      -0.08794900       0.19782900       0.07978800 
I      10.97981761      16.37366169      11.03419756       53      -0.15752100       0.22773600       0.07440600 
I      11.15774899      16.01102862      30.42875405       53      -0.04025800       0.11582700      -0.03122500 
I      15.51303372       5.19616376      11.61054258       53      -0.21733300      -0.00279500      -0.09322400 
I      15.96821497       4.84249083      30.69459311       53       0.10343800       0.04686400      -0.69537000 
I      15.65975320      16.29015732      10.86420079       53      -0.68189300       0.64405400       0.05749400 
I      16.02123279      15.91891742      30.53043264       53      -0.05386500       0.00698200      -0.33334400 
I       3.38443333       4.97309700       6.93551323       53       0.23609900       0.15192200       0.38833900 
I       3.42664071       4.40133146      26.30038430       53      -0.06933700       0.27548400      -0.03923700 
I       3.59666800      15.52093487       7.87972038       53       0.16245300       0.16517600      -0.13267600 
I       3.65179988      15.42444399      26.24687733       53      -0.07280100      -0.57774700      -0.17118500 
I       8.45402614       4.99308018       7.80580210       53       0.12081000      -0.08678400      -0.35614700 
I       8.37568783       4.18148107      26.98454046       53       0.23677000       0.13927900      -0.23381500 
I       8.47180668      15.27626888       7.27243607       53       0.19639300       0.10945400       0.22197900 
I       8.50415140      14.71595744      26.30562812       53       0.12597500       0.31461800       0.17808600 
I      12.69128669       4.13853357       7.87354059       53      -0.10997700       0.30416700      -0.14898200 
I      13.47812926       4.00990957      26.90323971       53      -0.06734100       0.05398000       0.07804300 
I      13.69332833      15.77184757       7.00963818       53      -0.41457700      -0.38143600      -0.15793400 
I      13.43749365      15.52121930      26.74808368       53      -0.00285900       0.04227500      -0.03817500 
I      18.23261104       4.38408632       7.90590499       53      -0.11931400       0.50146300      -0.18912400 
I      18.04761802       4.65794366      26.34219308       53      -0.07142500      -0.34767900      -0.10766000 
I      18.28898006      16.09798556       7.37911243       53      -0.26890800      -0.20556500      -0.20797600 
I      17.58898813      15.78162854      26.19894192       53       0.19391800      -0.20833500       0.32555300 
I       1.05229977       3.74165332       3.82771169       53       0.01302800       0.06524700      -0.18532500 
I       0.88813733       3.21317088      23.04538890       53      -0.13783900       0.31123900      -0.04370600 
I       1.12585487      14.92588022       3.25755826       53      -0.16049400      -0.47273700      -0.13298400 
I       0.95563075      14.17316672      23.25919237       53       0.04554700       0.00836900      -0.51818400 
I       6.21446535       4.11662924       4.03218200       53      -0.11823500       0.15929000      -0.04292500 
I       5.88698491       3.65713128      22.98435969       53       0.10866900      -0.37005800      -0.02069300 
I       5.38879022      14.13680745       3.55790630       53       0.02986100      -0.05463100      -0.34572600 
I       6.12278524      14.00847872      22.99884022       53       0.01233000      -0.12371300      -0.20217700 
I      10.48873769       3.30658319       4.33843228       53      -0.21973600      -0.10862600       0.02586000 
I      10.77024717       3.63110217      22.98580450       53       0.22721000      -0.25645900      -0.07963800 
I      11.05798467      13.98039952       3.51384371       53      -0.05639600       0.24986500      -0.18155700 
I      10.94102737      13.55461432      22.46083959       53      -0.02188300       0.52449900       0.25864600 
I      15.79721431       3.84337226       4.05364049       53      -0.16245000      -0.13415500      -0.19560400 
I      15.22468110       2.89076990      23.37576386       53       0.02057200       0.35543900       0.20241300 
I      16.06258785      14.65318227       3.48834803       53      -0.17669200      -0.26832000       0.31668100 
I      16.20462943      14.03870643      22.64702841       53      -0.46413500       0.07962900       0.10929400 
I       3.52669636       7.64772595      15.68405012       53       0.02612200      -0.12237400       0.04795500 
I       2.83972146       7.53300081      34.14226518       53       0.27854400      -0.15397400      -0.07425900 
I       3.14741457      18.78625944      15.27847643       53       0.02349700       0.32264400       0.21584000 
I       4.54825565      18.68926662      34.26187588       53      -0.07774500       0.11305800       0.60878900 
I       8.01940972       7.48222697      15.22393901       53       0.43997400       0.09869800      -0.51146700 
I       8.06331386       7.30496484      34.15327443       53       0.10146500       0.19075900       0.23021800 
I       8.04021175      18.97722359      15.61777809       53       0.24127300       0.02565300       0.04770200 
I       8.76189444      18.78648089      33.98305916       53      -0.05353000      -0.07538400       0.49305000 
I      13.50914236       7.49719368      14.76617719       53       0.49333500       0.11239600       0.11804600 
I      13.35107801       7.58401973      33.95249486       53       0.01023000       0.04522500       0.56584100 
I      13.01898857      18.47521808      14.78633654       53       0.32217600       0.50574700       0.11655200 
I      12.86017919      18.18338829      34.44479420       53      -0.03611400      -0.00289000      -0.41134300 
I      18.27380666       8.18942126      14.88353210       53       0.06347700      -0.07244400       0.47274100 
I      17.69588397       7.94796081      34.33928314       53       0.11488700       0.08705100      -0.09162600 
I      17.85924035      19.34465464      15.06846311       53       0.24735500      -0.04663100      -0.63374800 
I      18.53974808      19.28525626      33.76347746       53      -0.58463500      -0.12239800       0.34737300 
I       1.03397595       7.91371855       5.39733307       53      -0.14071200       0.12606000       0.26998500 
I       0.56955700       8.38370905      24.23558873       53       0.44939000      -0.22864400       0.31533000 
I       1.50937856      19.32313119       6.16873257       53      -0.08560500       0.26407000      -0.09797300 
I       0.99475561      18.98209439      24.67517043       53       0.00410900       0.01125900      -0.04975500 
I       6.44127206       8.81475577       5.75373912       53      -0.04123100      -0.17215700       0.12645200 
I       6.36808899       8.03354676      24.87860931       53      -0.26955700       0.05807000      -0.27742700 
I       6.32000988      18.64524044       5.88318492       53      -0.29782800       0.31833700      -0.64170700 
I       5.66394965      18.60307342      24.64206394       53      -0.11165100       0.94085300      -1.78041800 
I      10.86923300       8.61804095       5.63097308       53      -0.09735600       0.24175300       0.35468400 
I      10.76769712       7.64671911      25.29538810       53       0.04280900      -0.23771000      -0.21637700 
I      10.97613769      19.23281026       5.25476691       53       0.18397700      -0.04520400      -0.03253800 
I      11.22508494      18.99715953      24.67247865       53      -0.20568600      -0.34383100      -0.32086700 
I      15.36175641       7.52222876       5.64538077       53       0.25353600       0.29865100      -0.02935700 
I      15.33668197       7.94137750      24.79244071       53       0.18964400      -0.05975300      -0.05045400 
I      16.43188888      19.76021893       4.91755077       53      -0.30787000      -0.68840300       0.19054300 
I      15.52990879      19.27155522      25.04322448       53      -0.10883800       0.12363100      -0.18423900 
I       3.87535086       2.00942551      13.11562019       53      -0.06238600      -0.22870600       0.28719100 
I       3.43081076       2.01135749      32.02654223       53       0.19484700      -0.21967600       0.78733000 
I       3.73036554      12.71745556      13.71287550       53       0.03955700       0.07214900      -0.03821000 
I       3.46823395      12.43390189      31.83800117       53       0.02048600      -0.08590800       0.57844300 
I       8.69341780       2.53826620      13.53764181       53      -0.22606000      -0.23763100       0.39047900 
I       8.91587436       1.54736864      32.79473127       53      -0.23910000      -0.23436500      -0.01743400 
I       8.94377739      12.22259927      13.27248381       53       0.24028000       0.33177800      -0.14008100 
I       8.42134974      12.34730517      32.25570117       53      -0.04264600      -0.13469500      -0.14217100 
I      12.76150536       2.11661168      13.88131331       53       0.12111300      -0.09320600      -0.07975500 
I      13.48965521       0.95480599      32.83113876       53       0.12670900       0.23716500      -0.44418500 
I      13.59395079      13.51166486      13.25537646       53      -0.11349900      -0.08049600      -0.45875400 
I      13.46250805      13.02496758      32.61686976       53       0.03016700      -0.11002500       0.29839400 
I      17.72824246       1.74847398      13.57656196       53       0.37635500       0.28951100       0.13470600 
I      18.30002375       1.76873273      31.88730758       53      -0.20254200      -0.26784700       0.61354500 
I      18.87013781      13.06828612      12.98543329       53      -0.70144200       0.37201500       0.16263400 
I      18.16812237      12.67036458      32.05716558       53      -0.00921500      -0.27042400       0.24062100 
H       2.90200453       0.89320398       5.11218500        1       2.62406300       0.94953400       0.95593900 
H       2.93378825       1.91719818      24.44796414        1      -0.22782000      -2.14644200      -0.47130900 
H       3.87275749      11.17105832       5.30552107        1      -2.31345900       1.14288400      -0.59644000 
H       3.89419630      10.35036225      25.47963903        1      -1.69870000      -1.50762000       1.18489000 
H       7.93772120       1.76910673       6.00605922        1       0.61492500       0.74905600       0.66924200 
H       7.97135423      -0.76258994      24.13098510        1      -0.39560200      -0.14182700       0.73138200 
H       7.36536120      12.45045711       4.93038079        1       0.87053600      -1.53546700       0.33669700 
H       8.39842479      10.03386744      24.11385807        1       0.99101400       0.43337100      -0.02772300 
H      13.92150997       0.35134431       5.83924043        1       0.96854100       0.51993900      -0.84751000 
H      12.24230687       0.37503103      24.20864825        1       0.92936900       1.39804600      -0.00612600 
H      13.11394213      12.02769340       4.83698522        1       1.89998200      -0.02386400       0.41618600 
H      14.07715908      12.00951918      24.88902509        1       0.77573000      -0.45816100      -0.28834800 
H      18.18199565       1.87215237       5.74386170        1       0.21218800       2.75928700      -1.97336100 
H      17.04611179       0.58990040      24.41441476        1       1.84428800       0.36584500       1.47277100 
H      17.92185509      12.02587854       5.39427123        1       0.37208200      -0.54000500      -0.24644900 
H      18.78231969      11.66939375      24.85026142        1       0.23233700      -0.44626700      -0.35799400 
H       2.50292361       8.78349761      13.22596367        1      -0.32793000       0.09015300      -1.56766500 
H       2.13719719       8.81576458      30.88064217        1       1.59957200      -0.87210100       0.05084700 
H       0.56142850      20.97523633      11.10792392        1       1.75618300      -0.85362100       0.42253500 
H       1.67727702      19.01915343      32.48874968        1      -2.01822500      -2.83015100       0.69274700 
H       5.42333364       8.24930682      12.85451808        1       0.25375000       0.83890300       0.69421400 
H       4.19947616       9.63322263      31.41134791        1       1.16650000      -1.16197600       0.40038800 
H       5.07107205      20.31762304      14.08176809        1       2.18742300      -1.24706400      -1.88853300 
H       7.00162582      19.33387077      31.86006200        1       1.17547200      -1.01785500       0.17949700 
H      12.43257814      10.40655805      13.14226935        1      -1.72166800      -1.05240200      -0.65966800 
H      11.40656929      10.10027431      30.51581630        1       0.19626900      -0.77142900       3.14482800 
H       9.57452893      20.30169279      12.05198540        1      -0.53885900       0.52442000      -0.57121500 
H      10.74901603      19.94218652      29.78699916        1       0.32885000      -0.15097400      -0.69194600 
H      17.11311212       9.58263873      11.79336642        1      -1.40516300       0.04078500       1.51636500 
H      15.44805689      10.00752240      30.97382614        1      -1.12259600       1.25772300      -2.58975500 
H      15.86008495      19.14524016      12.64106793        1       0.68028800      -0.02838800       0.04071400 
H      16.00255171      18.52912267      30.90399230        1      -1.47307700       2.67584700       0.00455000 
H       3.14248275       7.30176816       2.19850295        1      -3.18386700      -2.32288100      -2.75018600 
H       4.19920452       7.67287224      22.58423158        1       1.05609800       0.41918200       0.54267900 
H       1.55640457      17.45068257       2.36902135        1      -0.19599000      -0.05778500       0.14150400 
H       3.74031481      18.01428812      21.05662664        1       0.23744800      -0.83194100       0.05739000 
H       8.45856920       8.89862332       3.40960324        1       0.00700300      -0.71828300       0.47233300 
H       9.78645455       7.36799492      22.49520389        1      -0.20200200      -0.56189600      -0.15330200 
H       7.96992714      17.94102335       3.94037197        1       0.84505400       0.27341600      -0.55235400 
H       8.33535239      16.62288846      21.40906342        1      -0.49152800      -0.37023000      -0.85364300 
H      12.90304303       5.72486075       2.72151226        1      -0.53220000       0.89873300       0.64325200 
H      11.82732916       6.47057954      21.41299234        1       0.18456900       1.04121100       1.13792500 
H      14.67956570      17.28286678       2.02207247        1      -0.92646100       1.36909100       0.61120600 
H      13.41304122      18.48296176      22.59512175        1       0.09278700       0.27092500      -2.00882200 
H      18.35548632       7.93353146       3.40747540        1      -0.58777500       0.10146600       0.69686700 
H      17.86524495       5.89634563      20.74666200        1       0.00495400       0.00407300       1.85675900 
H      17.58186647      17.93538389       0.86377840        1       1.59266800       0.47300900       1.73065900 
H      17.73905980      19.01149734      22.18978329        1       0.22301700       0.70452800      -0.52964400 
H       0.26824642       4.60476344      14.76338009        1       1.02141000      -0.38207600       0.09842000 
H      -0.13450360       3.64930198      33.66644231        1      -0.48268400       0.20092800       1.54852600 
H       0.36183981      15.88815234      17.06059132        1      -0.20676500       0.82724200      -0.64388600 
H       2.95541701      15.92572021      33.77563822        1       0.22267500       0.67606700       0.20839800 
H       5.71367041       3.69893120      15.11313984        1      -0.44496500       0.01279800       0.85631100 
H       6.50386713       5.23041389      34.53946234        1      -1.53042100      -1.16946300      -1.08088500 
H       6.75311555      14.60921613      16.24322579        1      -0.40524300       1.87064100      -0.53531800 
H       7.11265824      16.19908347      33.56109167        1      -1.40614400      -0.41511600       0.10460200 
H      12.15419349       4.75066112      16.06971936        1       1.37248300      -0.14207200       1.27307900 
H      11.68028293       3.51158398      36.20431286        1       0.20614600       1.43513200      -0.39070700 
H      10.52552804      15.52246431      14.48382523        1       0.74074200      -0.35965100      -0.04167900 
H      11.11695001      14.02357732      34.12235286        1      -2.50595200       1.60742000      -0.35443600 
H      16.94103771       4.46297972      15.16439693        1      -1.28689400       0.06964000      -0.01667800 
H      14.96123659       3.48358549      33.97331362        1      -0.71754400      -2.01987700      -1.44136000 
H      15.79683048      16.75100855      14.30001522        1      -0.11307300      -0.33585300      -0.09952900 
H      16.78248028      16.19651865      33.27645244        1       0.23393400      -2.92115300       1.47911900 
H       4.80326164       0.63882690       5.53553431        1      -1.55965600       0.20949100       0.11432500 
H       2.61826879      -0.01097185      24.27732370        1      -0.80892900       0.63676300       0.89798500 
H       2.73476351      11.57247967       3.97859039        1      -0.54118500       0.60854900      -1.36810000 
H       4.82168486      11.79301408      25.78833602        1      -0.05489600      -0.37665200      -0.36041600 