768
Lattice="19.2580943458 0.137291601824 -0.0669427817793 0.152220659214 22.0884169542 -0.0795277709122 -0.134283182582 -0.128566789393 37.9687694282" Properties=species:S:1:pos:R:3:Z:I:1:forces:R:3 energy=-99803.5735535 stress="-1346.143387 -3082.930785 2648.464427 -3082.930785 2714.18191 -1418.442114 2648.464427 -1418.442114 1943.543526" pbc="T T T"
I       3.40853900       4.10268167      19.47689983       53       0.08941900       0.07526900      -0.37777600 
I       3.61981947       4.05676113      37.78939367       53      -0.24869700       0.69168100      -0.32953700 
I       3.57597032      14.94620855      18.77349889       53      -0.20742300      -0.21284600       0.22212100 
I       3.34701911      15.18435657      37.79529945       53       0.21891100       0.30921100      -0.61845100 
I       8.95030506       4.02941367      19.03874052       53      -0.10179300      -0.27890200      -0.03170700 
I       8.38629090       4.22808535      38.16742723       53      -0.10384200      -0.27142600       0.21638600 
I       8.77061200      14.83878101      18.79345222       53      -0.27783300      -0.10743100       0.21992100 
I       8.07511980      15.09868206      37.41379540       53      -0.03481400       0.01760300       0.32905100 
I      13.74734952       4.41977838      19.40002847       53      -0.22414100      -0.38252100      -0.19173400 
I      12.90755732       4.06536200      38.49310200       53      -0.63859500      -0.09481700      -0.59021500 
I      13.39924150      15.15993919      18.81127170       53       0.18153500      -0.42238600      -0.25347900 
I      13.35163034      15.24859237      37.71488919       53       0.11027700      -0.02365000      -0.03503400 
I      18.02474756       3.85247023      18.99575107       53      -0.56381400       0.72620500      -0.48090800 
I      17.77424758       3.85341024      37.68351893       53      -0.00191800       0.10737800      -0.00052300 
I      18.24337754      15.05617847      18.96050477       53      -0.81703800       0.56941000      -0.60671200 
I      18.18938564      15.46043803      37.26152913       53       0.33050900       0.07373700       0.06364400 
I       0.94343690       7.74038606      -0.80704069       53      -0.15921400      -0.82511700       0.64270900 
I       0.90614896       7.86055328      19.37730370       53      -0.00370600       0.01687100      -0.36934700 
I       1.49248036      19.55597842      -0.61823511       53      -1.29151800      -0.51829000       0.23874400 
I       0.71493983      18.66058401      19.06485150       53       0.42137800       0.37536400      -0.19367700 
I       6.09569596       7.90353976      -0.13030997       53      -0.42452200       0.20512600      -0.16729200 
I       6.17387222       7.00295349      19.14669161       53      -0.32866300       0.34945700      -0.32289200 
I       5.72250224      18.71941774       0.55070929       53       0.01792800       0.18183900      -0.35978600 
I       5.77908611      18.16118344      19.21390112       53       0.15637300       0.66890900      -0.59357000 
I      10.92787665       8.01644968      -0.35663055       53       0.33573200       0.30643800      -0.01570700 
I      10.75100064       7.50788107      18.75289112       53      -0.16347900       0.43042200      -0.67480600 
I      11.03179900      18.31478833      -0.16556321       53      -0.01536300       0.35437500      -0.24531900 
I      10.59837344      18.54237911      18.89450794       53       0.29744700      -0.26039600       0.15735800 
I      15.45664726       7.24582237      -0.42008499       53       0.07963400       0.74112300       0.05868900 
I      15.75098648       7.85964302      18.67707776       53      -0.05273800      -0.10811300       0.05270300 
I      16.07783130      19.63322955      -0.86152639       53       0.40184000      -0.11401300       0.36448700 
I      15.79982223      18.87675589      18.64256423       53      -0.38512600      -0.13332600      -0.03065600 
I       3.30065237       9.15420528       9.40057538       53       0.23715100      -0.22471500      -0.17390900 
I       3.50101963       8.35223845      28.07046030       53       0.20594900       0.36340600       0.01443400 
I       4.13023141      20.18499783       9.67154333       53      -0.35361300      -0.46670400      -0.37522200 
I       3.73673731      19.35755463      28.31445163       53       0.41944600      -0.09609000      -0.88324000 
I       8.44324660       9.10852371       9.97903074       53      -0.17780900       0.11908700      -0.07623900 
I       8.73525365       8.18663459      28.97948383       53      -0.34066800       0.16507000       0.02572600 
I       8.68779916      20.13173870       9.35251207       53      -0.23111800      -0.40534300      -0.22952200 
I       8.23890116      19.61857020      27.68289281       53      -0.01593800      -0.09861100       0.25509400 
I      13.28739553       8.87242329       9.45999414       53       0.08135900      -0.40912700       0.20942200 
I      13.45946045       8.28716081      28.61805607       53      -0.22239800       0.17641200      -0.21149000 
I      13.32132999      19.91640172       9.04446937       53      -0.06489600       0.13972100       0.20165000 
I      13.03587423      19.87719411      28.41081326       53      -0.18226700       0.12579600      -0.09342400 
I      17.56754915       8.33076405       9.13428566       53       0.10473300       0.26335600       0.67850600 
I      17.67243034       8.35631677      28.69643758       53       0.86597700       0.52959300      -0.01106100 
I      17.66665941      20.34115502       9.55156352       53       0.30004200      -0.28313000      -0.34819600 
I      18.43864715      19.96233713      28.52869392       53      -0.07568300      -0.52425400      -0.06804000 
I       1.00361421       1.28092225       9.65149381       53      -0.06404600      -0.32010100       0.20175900 
I       1.21873205       0.83429792      28.68506925       53       0.56005300       0.37555200      -1.01105000 
I       1.52017388      12.73381764       9.33848434       53      -0.45604800       0.47961900       0.74043400 
I       0.96767183      12.46749321      27.60625943       53       0.18665100      -0.19182400       0.07703900 
I       5.80114355       1.59106409       9.57608006       53       0.14522200       0.53078700      -0.28587200 
I       6.31795706       1.50911293      28.32244467       53      -0.33358400       0.06561300       0.31583000 
I       6.08312882      12.40166297       9.70453381       53      -0.13583500       0.21288700      -0.16419900 
I       6.25412383      11.59824249      28.34857151       53       0.06515800       0.60968100      -0.16956200 
I      10.39673300       1.46454588       9.82525431       53       0.10946800       0.31231600      -0.13910500 
I      10.87137608       1.69001967      28.81541888       53       0.12287500      -0.70279300      -0.20240400 
I      11.05008650      12.51056298       9.09986633       53       0.08388000       0.05068400       0.06581500 
I      11.56729465      12.59967129      27.89908056       53       0.29095700       0.08660900       0.35497500 
I      15.20602928       1.35527304      10.28308634       53       0.05518700       0.09597500      -0.23092500 
I      15.65499570       1.02412679      28.21518471       53       0.24817200       0.07868300      -0.01720300 
I      15.71050371      12.69138544       9.07218371       53       0.31805200       0.04599100       0.00524800 
I      15.69242245      12.44351906      27.86128097       53      -0.21585800      -0.40459200      -0.18172600 
I       0.91769776       0.84911592      17.03374214       53       0.54424900      -0.02382500       0.11541100 
I       1.39700420       1.44420286      35.96953602       53      -0.11281600      -0.47473400      -0.10615900 
I       1.47926572      11.65377232      17.14549787       53      -0.10196800      -0.29491700       0.06551500 
I       0.96557367      11.40446619      35.92304732       53      -0.10154100       0.36882000      -0.47697200 
I       5.96670676       0.52850509      17.33156771       53      -0.22341200      -0.13126600       0.03772900 
I       6.36126183       0.67589384      36.50462116       53      -0.11619800       0.11790700      -0.14045200 
I       5.95948021      11.68694624      16.90503554       53      -0.01994300      -0.49651900       0.50911200 
I       6.00747015      11.61490878      35.51024540       53      -0.38781000      -0.12315500      -0.20289200 
I      10.37654069       0.47577149      17.45220294       53       0.11354100       0.06739500      -0.16367500 
I      10.54326800       0.81334806      36.48944421       53       0.14010200      -0.31272800      -0.67209300 
I      10.59242303      11.26893462      16.58450403       53       0.06247100       0.06542900       0.07337200 
I      10.10075075      11.99493440      35.58541621       53       0.64153800      -0.05163500      -0.28093600 
I      15.07761916       0.41096058      17.17914775       53       0.02637200       0.67271800      -0.13994600 
I      14.83950585       1.56527339      36.10779936       53       0.23193600      -0.77779700       0.06929900 
I      15.29285896      11.58953454      16.55971482       53       0.24681300       0.66506000       0.56924100 
I      15.67140913      12.40964212      35.97034415       53       0.09692000      -0.64186000      -0.48817000 
I       3.37822278      11.13743378       1.47506246       53       0.21523400      -0.08527900       0.54333800 
I       3.64811983      11.34981489      21.13076294       53       0.15787700      -0.44877400      -0.45643500 
I       4.02785889      22.49002010       1.90343102       53      -0.42661200       0.32803900       0.16811100 
I       4.25383937      22.19984547      21.02373104       53      -0.34740300      -0.21076500       0.23234000 
I       8.48846610      11.41548152       1.63213288       53      -0.03589100      -0.03464200      -0.17634000 
I       8.17369759      10.86204740      20.96282988       53       0.31387700      -0.24856300      -0.16200900 
I       8.00843483      22.51227288       2.33789178       53       0.30419500      -0.17987500      -0.02203000 
I       8.80629855      22.16746183      21.21082120       53       0.07603300       0.24066900       0.18672000 
I      13.51542756      11.48525325       1.29787510       53      -0.00464900       0.02795300       0.42666400 
I      13.17598486      10.61095049      20.38972998       53       0.23386400       0.30812700      -0.00430100 
I      13.18423273      22.08862221       1.84888582       53       0.36740400      -0.16843300       0.20236300 
I      13.63419170      22.06696734      20.91370460       53      -0.00690700      -0.31395500       0.18682200 
I      18.21057546      11.55741664       1.52367213       53      -0.22441800      -0.22715100       0.34640600 
I      18.22920802      11.01040491      20.69441721       53      -0.12840900      -0.33382900       0.85747000 
I      18.21086995      22.49857932       1.49581004       53       0.25012600       0.01388200       0.11629100 
I      18.27718507      22.36912607      21.09436642       53      -0.17934800      -0.51384500       0.10188900 
I       1.13955629       5.79822636      11.53979349       53      -0.17445400      -0.56564700       0.21373700 
I       1.54689070       5.51196842      30.33494328       53      -0.31168600      -0.16417300      -0.38820900 
I       1.45374869      16.61789015      11.63439806       53      -0.10738400      -0.14479000      -0.02154900 
I       1.29271596      15.79894370      29.71981277       53       0.18315400       0.32845000       0.20271100 
I       5.42072626       5.67988264      11.32851798       53       0.29348700      -0.14747600      -0.20586300 
I       6.06278579       4.80952335      30.70920491       53      -0.23730400       1.04161400      -0.15377700 
I       6.38668565      16.61557385      11.50822294       53      -0.01057900      -0.36705800       0.47616900 
I       6.32030509      16.12240925      29.86663830       53      -0.11087400      -0.17743600      -0.00986300 
I      10.76136749       5.76222448      11.57227728       53      -0.28625300       0.15703200      -0.16222700 
I      11.39162438       5.08271340      30.82057988       53      -0.09673000       0.39031900       0.44334400 
I      11.03903745      16.64013897      11.20821690       53      -0.01793500      -0.12158800      -0.28479400 
I      11.05482719      16.54667867      30.45618138       53      -0.02233100      -0.32928800      -0.56444800 
I      15.37454736       5.17313455      11.56872052       53       0.40177100       0.57010400       0.18587700 
I      15.79024566       5.31062942      30.05615483       53       0.39195300      -0.57772300       1.03605800 
I      15.87533117      16.79012959      11.04392786       53      -0.10653700      -0.23493200      -0.23012200 
I      16.02222314      16.42833792      30.15963097       53      -0.16404100      -0.18562100       0.77122400 
I       3.43693356       4.72261930       7.13394665       53       0.01516800       0.02252200       0.62473900 
I       3.35868789       4.59691517      26.25405034       53       0.08226200       0.22274800      -0.08168100 
I       3.75872535      15.84020584       8.04619178       53      -0.11783200       0.34156100      -0.46875900 
I       3.70911320      15.60765127      26.06320312       53      -0.39410100      -0.04022100      -0.13172800 
I       8.50204365       5.38796979       7.73354722       53      -0.24684100      -0.71193200      -0.91411200 
I       8.74094525       4.19873790      26.90725312       53      -0.26955800       0.61670600      -0.12152300 
I       8.55511042      15.73563105       7.38522006       53      -0.05585300       0.46639200       0.28519100 
I       8.51398808      15.03523853      25.98676806       53      -0.05960500       0.60066400       0.59202000 
I      12.79481795       4.50871118       7.60143656       53      -0.15826900      -0.02563600       0.27336300 
I      13.52658668       4.30633301      26.94170914       53      -0.56124400      -0.03330000      -0.33792500 
I      13.50478605      16.22015016       7.05811743       53      -0.04442500      -0.07420000      -0.21976700 
I      13.48091007      16.10251938      26.69317246       53       0.32042500      -0.22334800      -0.25205200 
I      18.26330807       4.70888013       7.70802226       53      -0.39451300      -0.34456900       0.14182500 
I      18.14584387       4.67063334      26.32587759       53       0.16384600      -0.01769000      -0.33222500 
I      18.15678881      16.65389302       7.11148366       53       0.58844800      -0.58735300       0.03864300 
I      17.64968573      16.08981342      26.17997818       53       0.21613600       0.10648400       0.26704200 
I       0.99862365       4.13751647       3.64809306       53       0.12711700       0.32397400       0.37452600 
I       0.83782790       3.74770208      22.81329329       53       0.04787600      -0.00088200       0.31165400 
I       1.22853073      15.30052577       3.09933320       53       0.28415900      -0.39516200       0.35219900 
I       1.20051495      14.49119258      22.71263420       53      -0.30005500       0.46031500       1.14765900 
I       6.24453933       4.34366359       4.22359256       53      -0.11131500      -0.31007300       0.18269700 
I       5.96476824       3.72638831      22.85121087       53      -0.11333300       0.23733300       0.51232700 
I       5.34309040      14.10514020       3.21969178       53       0.21002600       0.40933700       0.89251800 
I       5.97473251      14.36275866      22.89781758       53       0.16907300       0.26027300      -0.14635800 
I      10.41747265       3.51944992       3.97333551       53      -0.09857300       0.00659800       0.63359300 
I      10.82462957       3.66562994      22.77347685       53       0.05132200       0.05883000       0.23344500 
I      10.69899683      14.47216834       3.45620866       53       0.17611500       0.29765800       0.17857000 
I      10.80403667      13.96523483      22.45309210       53       0.25583900       0.24700100       0.01627000 
I      15.99274380       3.86149152       4.09034556       53      -0.21470000       0.15783000       0.31232400 
I      15.44387189       3.50003699      23.34392827       53       0.01300200      -0.46244100      -0.25961000 
I      15.84634564      14.82815933       3.73841901       53       0.14517200       0.21472900       0.12432600 
I      16.05269008      14.72408924      22.62922543       53      -0.09305000      -0.31568300      -0.21894500 
I       3.29785020       7.84976997      15.63489759       53       0.03090500      -0.08455700       0.10482900 
I       3.00076929       7.98290392      33.89470939       53       0.30464700       0.28885600      -0.29423900 
I       3.05057380      19.34979858      15.33863770       53       0.47469700      -0.29618700       0.48628900 
I       4.37933229      19.26681023      34.45360804       53      -0.18208800      -0.15211300      -0.89293800 
I       8.04086805       7.73304251      15.03340710       53      -0.11772100       0.19623900       0.02411300 
I       8.15909674       7.79901058      34.17980619       53      -0.02428700      -0.41483500      -0.82676700 
I       8.17437483      19.45092966      15.49475622       53      -0.09558400       0.09042200      -0.06041300 
I       8.53665534      19.92803976      33.81137895       53      -0.03543000      -0.55028200       0.69840800 
I      13.69545280       7.91004842      14.62684016       53      -0.42291100       0.26310500      -0.33844000 
I      13.26033463       7.94021788      34.01199114       53      -0.07410300       0.18018500      -0.32920100 
I      12.79364790      18.82097619      14.85225941       53      -0.11163700       0.13920400       0.78505200 
I      12.82285852      18.73587084      34.25867755       53       0.25347100       0.04877500      -0.22171200 
I      17.71016646       8.45249893      15.08539504       53       0.56326200       0.00385900      -0.33834500 
I      17.72906576       8.45085491      33.87838519       53       0.03894000       0.05749500      -0.09349200 
I      18.05958335      19.96657807      14.90577238       53      -0.02042700      -0.04965500       0.10253100 
I      18.41012468      19.79307537      33.79731851       53       0.10644500       0.13779400       0.02057500 
I       1.02372719       8.05837221       5.71676106       53      -0.07278100       0.40277300      -0.74656300 
I       0.98584332       8.67895238      24.03223952       53      -0.36727400      -0.08997300       0.67502300 
I       1.39917077      19.87204786       6.32458272       53       0.11716600       0.23739100      -0.41845700 
I       1.26651178      19.40789756      24.42607670       53       0.33463700       0.09105600       0.40022800 
I       6.23018241       9.06606871       5.86635803       53       0.00177200      -0.39941400       0.04837100 
I       6.60785405       8.50404364      24.71640998       53      -0.28382900      -0.13206000       0.55306500 
I       6.02150778      19.13031090       5.90588592       53       0.00285800       0.09826700      -0.62503600 
I       6.10970087      19.22821243      24.13048613       53      -0.14248200       0.15334600       0.73462200 
I      10.81897564       8.82633716       5.42548579       53      -0.13092800      -0.07272200       0.43657700 
I      10.77128813       7.81742103      24.95891098       53       0.27289900       0.18941100       0.13073500 
I      11.09286277      19.73802943       5.45353628       53       0.13701900       0.29834800      -0.46559400 
I      11.03637211      19.58212410      24.53253548       53      -0.15895500      -0.05409100      -0.03842500 
I      15.33316524       7.65407101       5.51693420       53       0.19775600       0.43715500       0.35436600 
I      15.32179889       8.23411486      24.59765179       53       0.04635100       0.04318600      -0.11477800 
I      16.22230285      19.81027314       5.05205509       53      -0.15461000       0.86390400      -0.59678200 
I      15.47957035      19.70622586      24.91672965       53       0.29278900       0.02887100      -0.00270200 
I       3.75868271       2.19652086      13.34132001       53      -0.40225500       0.37385300      -0.14597000 
I       3.48890465       2.11893161      32.06938621       53      -0.27672500      -0.18570700      -0.16143600 
I       3.89783648      12.82356055      13.69047215       53      -0.46649000       1.34579000      -0.00566500 
I       3.82255064      12.94283535      31.84919650       53       0.04955800       0.13855600      -0.35324600 
I       8.09352828       2.54683512      13.24204019       53       0.05500100      -0.27772600       0.24751300 
I       8.46452963       1.62623602      32.52499019       53       0.52673700       0.16812300       0.57357100 
I       8.36613033      12.57949088      13.08061381       53      -0.20174400       0.19754200       0.24413200 
I       8.27324414      12.68243653      31.86587369       53       0.03176500       0.32363200       0.26047800 
I      12.51322733       2.09921426      13.70150831       53       0.28043000      -0.06275500       0.24303500 
I      13.73510166       1.01617243      32.19599466       53      -0.12947000      -0.16082900       0.67375400 
I      13.54250929      13.84665115      13.01305130       53       0.14643100      -0.13842500       0.27657500 
I      13.54509629      13.35137055      32.53282953       53      -0.27130500       0.39090300      -0.30791900 
I      18.07017628       1.82156414      13.42210013       53      -0.26454100       0.19208400       0.48598900 
I      18.27999815       1.73080090      31.86609382       53      -0.05140600       0.20139900      -0.05560100 
I      18.73333540      13.46019322      12.80280404       53      -0.60161200      -0.56692800       0.11736800 
I      18.14769513      13.14640141      32.19469570       53       0.10645900       0.24082400      -0.44616200 
H       3.72363175       1.98518090       4.88681216        1      -0.75849000      -1.73517200       2.29924200 
H       1.84174851       0.75855695      25.18338527        1       2.41021800       0.12225200      -0.25616100 
H       3.15371974      11.05502352       6.12277074        1       4.33293500      -3.89972200      -1.51662300 
H       3.22138935      11.61088004      26.14453258        1      -0.95768500      -0.82411600       0.38597100 
H       8.81470011       1.77043985       5.81403394        1      -0.70558500      -1.70000500      -0.65881100 
H       6.62270874       0.14937387      24.52560144        1       0.18193500      -0.40099200      -0.50948800 
H       6.81245630      12.79577878       5.95440139        1       1.12862200      -1.24009300       1.01529600 
H       8.04261916      11.15408420      24.52843435        1       1.55948000       0.05770200      -0.39486400 
H      13.60841687      -0.02026171       5.27379760        1      -0.91588900       0.33551900       0.53627000 
H      12.19428531       0.91555003      23.46766612        1       0.65540300       0.52013700       2.72555400 
H      14.26671135      12.60910012       6.14689461        1      -1.62246600      -1.52156000      -0.39740300 
H      14.47758528      11.89761591      24.72846746        1       1.28604300       1.63388900       0.11489400 
H      19.42971207       1.57305324       5.68258764        1       2.30683100       1.29650600      -0.65843100 
H      18.74778156       1.75859061      24.73020964        1      -2.66986900      -1.23999500      -0.34161300 
H      17.41666116      10.83707574       4.43363357        1       0.13980100      -2.39095000      -1.83103600 
H      17.69227856      12.52522432      25.57423683        1      -0.04785300       0.74959400      -0.69562500 
H       2.74244285       9.06333396      12.78632615        1       0.42717200      -1.98365000       0.12076400 
H       1.45210368       9.65390233      30.20626543        1       0.00934200       0.20388900      -1.20473600 
H       0.27128723      20.19133991      11.99468353        1       0.89700200       0.61552100       1.12048400 
H       2.40520540      19.23169780      30.29242482        1       0.56308600       0.59203200      -0.34629500 
H       4.77132714       8.88846984      12.09388006        1      -2.32336900      -0.42140600      -0.24633000 
H       5.97027938       8.21428944      30.59948388        1      -1.58058200       1.83109800       0.59518200 
H       5.26530284      22.11201232      13.92843771        1      -0.21643200      -1.03875100      -0.65259800 
H       6.58942574      20.67539298      30.98599931        1       3.10860100      -2.31605300      -0.66372900 
H      12.07878442      11.30524487      13.08917005        1      -1.60270600      -0.78943300      -0.25995500 
H      11.51376085       9.46223013      30.31119620        1       1.36767900       1.58891900       1.24732900 
H      11.71402796      21.25427769      12.19715987        1      -0.07087200       0.25614200      -0.22086300 
H       9.52967068      21.05573491      30.04415784        1      -0.68677900      -0.05082800      -1.88443200 
H      16.42458880      10.39780885      11.55550589        1       1.08354700       1.53344300      -0.76941600 
H      15.43171427      10.92032288      30.41771745        1       0.02949500      -0.46913600      -0.51680400 
H      15.04747647      19.34976883      13.29023836        1      -0.64990200      -2.59145200       2.69109900 
H      16.14777358      18.96310168      31.97046039        1      -1.60792200       1.66534100      -0.90440700 
H       4.36113403       7.13385840       2.24791089        1       2.96656400      -2.00102400      -2.61178900 
H       4.41637829       7.80134969      22.08902875        1       2.99718100       1.60303500       0.27915700 
H       1.62596433      19.07153963       2.93163911        1       1.33550900       0.08282200      -0.34608500 
H       4.51126149      18.59843050      22.12503658        1       3.82089300       0.57630700      -0.44137200 
H       9.10255645       8.25722634       2.31347936        1       0.47994200      -0.40586100      -0.25649600 
H       9.11022524       6.16185242      21.06408590        1       0.06161400       0.87648400       0.23523700 
H       9.06877073      18.26090847       3.80768107        1      -0.21812100       0.20224500      -0.74083400 
H       9.37486202      17.27724363      21.32019618        1      -1.31269400       0.17879000       0.51273800 
H      14.09399200       6.78642366       2.83815699        1      -1.60807200      -0.76782000       0.42869500 
H      12.39533874       6.66578644      20.63670395        1      -0.24434500      -0.35452100      -0.04282400 
H      14.50204431      17.22125074       1.74279194        1       1.44693400       0.21715600      -0.14981500 
H      13.20250932      18.85936576      20.94726721        1      -1.22433300       0.44828300       0.59126200 
H      17.30257623       8.08155608       1.94828760        1      -3.41395700       3.92458500      -2.07491800 
H      18.17449525       6.41785066      21.22672299        1       0.49452200      -0.74578100      -0.86989100 
H      17.81835949      17.73080001       1.44900800        1      -0.28625500      -0.35576700      -0.29099500 
H      16.36941891      18.04304795      21.69385692        1       0.65879000       0.36620700      -0.31589200 
H      -0.08835571       4.61324532      14.90395880        1      -0.51737400      -0.61536700      -0.13069900 
H      -0.06593931       3.66523034      34.12451831        1       1.28347800       1.76487400      -0.61696000 
H      -0.01472777      16.47665012      16.15892773        1       0.09009200      -0.21775600       0.11181800 
H       1.83638809      16.91957987      32.86054098        1       0.08232400      -0.50794500       0.44436800 
H       6.38042192       3.85955499      15.22400047        1       0.89535700      -0.84627000       0.37246300 
H       6.14190702       4.63532953      33.30754805        1      -0.51795200       0.72651500       1.31117100 
H       6.29410785      15.43740786      14.34486580        1      -0.04056100       0.01486700       1.04287900 
H       7.03866286      15.41576191      33.27016691        1      -1.23052600       1.62274900       1.27566400 
H      11.53512023       3.61391567      15.71708177        1      -0.15251300       1.22884800      -0.40725900 
H      12.00614706       4.30555066      35.37780752        1       0.48817000      -0.81561500      -0.47205900 
H       9.70207670      17.32203774      16.06669004        1       0.33382200       0.57062900      -0.32462200 
H      11.12712146      15.14324415      32.90622156        1      -3.20614400       0.38773400       1.44628800 
H      16.66506601       5.68539279      15.25610350        1       0.36388000      -0.58354300       0.70540400 
H      15.91300582       5.90518488      33.57330828        1      -0.47382300       1.69897900      -0.76310200 
H      16.64998624      17.14028718      16.00220833        1      -1.25509900       0.80715400      -0.17535300 
H      17.31337441      16.99661880      33.98365706        1      -2.50489200      -0.96950600      -1.05170300 
H       3.97268206       0.23415100       5.27596418        1       0.81282700      -1.89656800      -0.82445100 
H       2.96740697      -0.31920280      24.31298037        1      -0.19433000      -1.10911400       0.20842500 
H       1.58579490      11.31264098       5.83189309        1       0.76218400       0.70073000       1.32121800 
H       4.68655694      12.43266833      26.15064560        1      -0.30735000       0.48431600      -0.79475200 