768
Lattice="19.5493801791 -0.228710780797 0.0364688476633 -0.251707938877 23.5213833797 -0.346709634382 0.0245275370404 -0.569181736181 40.6808518184" Properties=species:S:1:pos:R:3:Z:I:1:forces:R:3 energy=-99811.6227718 stress="1109.889964 -553.669166 1111.049623 -553.669166 -225.887996 -325.531363 1111.049623 -325.531363 -3594.534024" pbc="T T T"
I       3.62505820       3.18066249      20.16840810       53       0.44790500       0.39009300      -0.21142000 
I       3.85249159       2.98011130      40.73273955       53      -0.30809200       0.58089900      -0.23722000 
I       3.82648034      15.89427014      20.51188382       53      -0.39244900      -0.54297700      -0.00882300 
I       3.92932159      15.51603325      40.87085417       53      -0.03016300      -0.45793000       0.29390300 
I       8.76569859       3.38289543      20.51640031       53      -0.32192000       0.26764200       0.08164900 
I       8.69816595       3.41613866      40.32848310       53       0.02847200      -0.18015000       0.06975900 
I       8.75260950      15.33636614      20.38737049       53      -0.23376200      -0.31495500       0.36156300 
I       8.35389705      14.83683220      41.07583890       53       0.23778100       0.45800600      -0.53232700 
I      13.25621409       3.94272796      20.61047921       53       0.36738000      -0.68801400      -0.18971600 
I      13.59787845       3.21815677      40.83802775       53      -0.02318600       0.41628700      -0.22850700 
I      13.61004890      14.68047537      20.06053608       53      -0.58809100       0.45880700       0.06249300 
I      13.39765180      14.87005262      40.40170904       53       0.42623300      -0.00233400      -0.05970800 
I      18.37171832       2.95054160      19.94757525       53      -0.16974400       0.31974500      -0.04319100 
I      18.58563751       3.53481458      41.07089316       53      -0.39934000      -0.27772000       0.01679100 
I      17.97640360      15.25097804      19.45318923       53      -0.05003300      -0.41676900       0.01588900 
I      18.25314194      14.64425537      40.55740954       53      -0.10284500       0.51654400      -0.23535500 
I       0.66728152       7.87481896      -0.31540011       53       0.13320100       0.30729200      -0.02256500 
I       1.41460310       6.82307743      19.50618741       53      -0.06018400       0.56441100      -0.02624900 
I       0.47708112      20.20217908      -0.58900097       53       0.21267400      -0.15554200       0.51874000 
I       0.92472112      19.34399005      19.44304684       53       0.03798800       0.02649700       0.40623900 
I       5.71428262       7.59256462      -0.37812388       53      -0.00127400      -0.26465600       0.26332600 
I       6.13373191       7.25977874      19.87942983       53       0.17041400       0.10632400       0.02713200 
I       5.62927401      19.81919242      -0.14042471       53       0.21027700       0.16642100      -0.04853200 
I       6.16907371      18.83778714      19.80173096       53      -0.02351700       0.16062400      -0.54586200 
I      10.88194622       7.94830307      -0.36743403       53       0.31700500      -0.16360700      -0.02477200 
I      10.90960399       7.85079118      21.06994439       53       0.16202600      -0.11477800      -0.30146600 
I      10.90530420      19.68731854      -0.92379107       53       0.10573800      -0.07353500       0.05525400 
I      10.82592461      19.44443932      19.97127849       53      -0.14574700      -0.55352600      -0.09149600 
I      15.75734685       8.63817531       0.22952367       53       0.56715600      -0.62603800      -0.38022500 
I      16.02444360       7.13326637      20.15446154       53      -0.20204800      -0.19701500       0.08321100 
I      15.49323102      20.19373919      -0.39943720       53       0.10955300      -0.05838300       0.04369200 
I      15.39142557      19.24303066      19.58984709       53       0.06393000       0.03733900       0.00902000 
I       3.70909737       9.95385848       9.42933561       53      -0.03862000       0.81167700       0.52105100 
I       3.43346533       9.22817891      30.09980132       53       0.03247500      -0.07135100       0.04113200 
I       3.42174383      21.52740639       9.81593152       53       0.52033500       0.27658800       0.25238300 
I       3.97443978      20.51734694      30.18272484       53      -0.40292300       0.32492500       0.21434700 
I       8.54442819      10.09812158       9.87019776       53      -0.38598800       0.18343800      -0.05790700 
I       8.01086820       9.14492567      30.18672394       53       0.13646300      -0.16905400       0.06713400 
I       8.22925722      22.00705681       9.23482403       53      -0.60676800       0.36054500       0.06245900 
I       8.33504933      20.81122533      30.39246556       53      -0.38645200       0.05214300      -0.05485600 
I      13.66786841       9.35232727      10.36364337       53      -0.63565100      -0.06743100      -0.38904100 
I      12.99692684       8.59504060      31.17538815       53       0.00816900      -0.14943800      -0.35296800 
I      12.76305569      21.59379539       9.83523441       53       0.39413700      -0.06404700      -0.01918200 
I      12.73473331      20.82286388      30.34774863       53       0.69409100       0.08951700      -0.16014700 
I      18.40224191       9.78147726      10.19525710       53      -0.19401500      -0.26747100       0.24638400 
I      18.07965441       8.58350366      30.50780077       53       0.06151500       0.02963500      -0.15826800 
I      18.01962125      21.31252190      10.10146747       53       0.30084400       0.23096400      -0.08525300 
I      18.19263391      20.83397157      30.10621108       53      -0.27752000       0.09331500       0.07296300 
I       1.61969876       1.89324363      10.05348760       53       0.07592100       0.26237400      -0.07107300 
I       1.18318719       1.05992740      30.77571248       53      -0.10978900       0.51193500       0.18969100 
I       1.39749831      13.63582065       9.63742775       53       0.06390300       0.00378600       0.22874500 
I       0.33050690      12.67410708      30.45531997       53       0.31564500       0.23143700       0.14374700 
I       6.16566043       1.96164514       9.68390523       53      -0.41851500       0.13017200       0.04302600 
I       5.81298895       1.33041877      30.46364270       53       0.50059700      -0.16394500       0.21632000 
I       6.26163779      13.46904667      10.20342638       53      -0.33020500      -0.01697100      -0.23130900 
I       5.70772252      13.00090624      29.68051689       53      -0.54688100      -0.36102200      -0.11386400 
I      11.31437263       1.77511102       9.60727119       53      -0.40399900       0.14316400       0.03693600 
I      10.84639809       0.97851249      30.27624489       53      -0.12580700       0.44062600       0.51861700 
I      11.16650547      13.36530129      10.01398807       53      -0.29504400       0.37349400       0.42648900 
I      11.23259379      12.67058078      30.66546920       53      -0.26537400       0.09612900      -0.51196300 
I      15.88331383       2.03824911       9.28541363       53       0.23084900      -0.13001900      -0.02276400 
I      15.80984320       1.20226820      30.78944649       53       0.52724500      -0.53155500      -0.30893000 
I      15.62964315      13.51652471      10.59060707       53      -0.31214100      -0.19543500       0.12334300 
I      15.66297141      12.95993438      30.63107818       53      -0.35791600      -0.26102800      -0.20852900 
I       1.48402901      -0.40116147      18.34012781       53       0.33687000       0.67014700      -0.12827700 
I       1.51147422       0.13832718      38.79420872       53      -0.45977100       0.40184800      -0.05505200 
I       1.13455411      11.10496682      17.22228241       53      -0.05234200       0.01897300       0.08559500 
I       1.46946345      11.65984013      38.63088121       53      -0.18648100       0.44794000       0.06647200 
I       6.53408257       0.29707704      17.86138255       53      -0.37923900      -0.65848100       0.24334100 
I       6.33385799      -0.55971640      38.21164343       53      -0.30527600       0.20556400       0.20591900 
I       5.57680669      12.45687725      18.37111902       53       0.13145700      -0.36969300      -0.07387300 
I       6.01678856      11.44549376      39.28840293       53      -0.05059300       0.54497900      -0.49651600 
I      10.75878079       0.37115526      18.13351006       53       0.18650900      -0.23348700       0.48887800 
I      10.61926539      -0.15860677      38.33775868       53       0.29075400      -0.17183700       0.03233000 
I      11.51241466      11.59342728      18.44109861       53      -0.57105000       0.12624300      -0.19588700 
I      10.57747650      11.44985887      38.71157552       53       0.08130400      -0.18546600      -0.07784200 
I      15.79107740      -0.08126872      18.25234254       53      -0.16797600       0.50152300      -0.27277300 
I      15.84650283       0.31901040      38.43916703       53      -0.02863300       0.04008500      -0.04052700 
I      15.99791807      11.27614426      17.93106664       53      -0.15215300       0.29790900       0.45518800 
I      15.77495865      11.69956052      38.39843779       53       0.14531000       0.29543000      -0.02466800 
I       3.22366344      11.49011426       2.24588815       53       0.22452300      -0.05678300       0.04280500 
I       2.95390097      10.88818076      22.20588580       53       0.39731200       0.18427200      -0.00589900 
I       3.65489437      23.72417518       1.83614370       53      -0.25639200      -0.62961800       0.14473500 
I       3.44339517      22.79445441      21.88031945       53      -0.03623400      -0.43322700      -0.05258200 
I       8.74959747      11.39194709       2.06476427       53      -0.42412400      -0.22291200       0.12916600 
I       7.79704025      10.89674818      22.54321098       53       0.38704400      -0.00562000       0.13964100 
I       8.75926291      22.89412293       1.28895235       53      -0.66297600      -0.42564500       0.28035700 
I       8.66393876      22.56661043      22.11368980       53      -0.25209600       0.24719100      -0.37760400 
I      13.37524357      11.32103745       2.12466264       53      -0.03238400      -0.05843500      -0.00871500 
I      13.54922567      10.73277160      22.50693498       53      -0.14610700      -0.06688200       0.10197900 
I      13.10837596      23.16382319       1.47444755       53       0.03785700      -0.33405300      -0.09453700 
I      13.23949086      22.39970684      22.14259074       53       0.23250000       0.29142000       0.27745000 
I      18.40654066      11.23216142       2.03479850       53      -0.14334400       0.28345400      -0.03398500 
I      18.18500172      10.43468675      22.41518482       53       0.09303700       0.41285400      -0.14393000 
I      17.84520574      23.16694823       2.41504687       53       0.16088900       0.05720800      -0.26011700 
I      18.01686947      22.89324887      21.75030463       53      -0.60340000      -0.51577000       0.58528000 
I       1.28984611       6.55051963      11.99312370       53       0.05719000      -0.43200100      -0.19915900 
I       1.47885309       5.71315039      32.78502332       53      -0.30271100      -0.07782800      -0.37915100 
I       1.38889667      17.92450550      12.36531580       53       0.02143700      -0.36885200      -0.40338000 
I       1.13833755      16.99200185      32.99489883       53       0.06045500      -0.05446700      -0.35343500 
I       6.32271609       6.48463868      11.94544970       53       0.14609000      -0.10452800      -0.06033700 
I       5.87250162       5.55078817      32.43628666       53       0.61383000       0.54123600      -0.48276300 
I       6.22926240      17.88588832      12.04156496       53       0.08665400      -0.13524700       0.10142400 
I       5.89733087      16.76581681      32.46039013       53      -0.04969800      -0.25339800      -0.44112900 
I      10.86371336       5.52418488      12.37699375       53       0.21113600       0.38803100      -0.10645500 
I      10.61465351       5.27479739      32.69572737       53       0.26895200       0.17513800       0.20077900 
I      11.05705123      18.18884736      12.24780841       53      -0.21976100      -0.30379700      -0.10287400 
I      10.37129734      16.80330903      32.34993638       53       0.07356800       0.19431200      -0.15911900 
I      16.05954796       6.06987799      11.80893699       53       0.30044300      -0.31269400       0.25574500 
I      15.86719820       5.21620337      32.53446628       53      -0.10072300       0.47610400       0.16385000 
I      15.79480692      17.77783796      11.93942253       53       0.26924400       0.14395600       0.01454800 
I      15.60461378      17.45358633      32.38226822       53       0.08955300      -0.09510600       0.20572600 
I       3.27673006       5.80169982       7.84188678       53       0.60290400      -0.28146800      -0.18263300 
I       3.25828153       4.85223964      28.46528194       53       0.47414500      -0.74550300      -0.46796200 
I       3.22860503      17.07920338       8.10794877       53       0.48417400       0.14770700       0.14278400 
I       3.51499223      16.47453158      28.11120347       53      -0.22252200      -0.13596700       0.02489600 
I       8.36663984       5.51581963       7.39322861       53       0.08025500       0.18619200       0.82457600 
I       8.16998303       4.90064151      27.86019125       53      -0.04054700       0.46670100       0.16426900 
I       8.40513675      16.96173435       8.17183483       53      -0.39389300       0.03025100      -0.21866700 
I       8.53037898      16.32303754      28.27816719       53      -0.06304700      -0.32261400      -0.40334200 
I      13.30532723       5.41524284       8.06957005       53      -0.13614600       0.51707100      -0.90347000 
I      13.30316852       4.41719832      28.58962627       53      -0.19558800       0.16910300      -0.15893300 
I      12.58172030      17.16943145       7.70106185       53       0.39944000       0.06129200       0.60115800 
I      13.14804657      16.35251185      28.50750319       53      -0.01517300       0.05515500      -0.19755500 
I      18.38389603       5.64375558       7.55968325       53       0.22885700      -0.16342700       0.07277600 
I      17.97635798       4.60055763      28.43904569       53       0.06239800      -0.06410600       0.07748000 
I      18.05261149      17.16174638       8.13444216       53      -0.09134700      -0.06529900       0.07143200 
I      17.91729116      16.74157545      28.36975560       53       0.12867100      -0.48093000      -0.07854600 
I       1.32550518       3.77878456       4.43008108       53      -0.46463100      -0.44695800       0.03106600 
I       1.46021585       2.60712602      24.65328940       53      -0.04793300       0.32951900      -0.53640400 
I       0.68010311      15.17042785       4.21410998       53       0.13197900      -0.33804100      -0.13473200 
I       1.30784983      14.74888103      24.50292863       53      -0.15318700      -0.12770200       0.03489700 
I       5.98263706       3.93116303       3.76597438       53      -0.00008200      -0.55171600       0.12939800 
I       5.89695761       2.48612447      24.52583973       53       0.11239400      -0.00879000      -0.05218400 
I       6.66699640      14.43088466       4.61214019       53      -0.07559500       0.88254400       0.30883600 
I       5.97375029      14.91694484      24.43814777       53      -0.09198700       0.01293300       0.27358800 
I      11.08328541       3.74977994       3.91563424       53      -0.11631800      -0.55441900      -0.00156300 
I      11.24168482       2.60886998      24.61838929       53      -0.30998500       0.48891000      -0.28158200 
I      11.04589688      15.23016862       3.82161029       53      -0.10026600       0.53596300       1.30209300 
I      10.71166876      14.41323243      24.44042260       53       0.25472400       0.05469000       0.15201700 
I      15.66193353       3.52024798       4.53206280       53      -0.01304800      -0.46417900      -0.18828700 
I      16.17595734       2.10667654      24.58701860       53      -0.32505000       0.39727400      -0.53518900 
I      15.49548408      15.37172453       3.91943842       53       0.19568700       0.13578000      -0.09496300 
I      15.78602383      14.54902038      24.17313196       53       0.21065600      -0.08755100      -0.29253700 
I       3.92136176       7.53182019      15.76543940       53      -0.08394100       0.39823700       0.13711400 
I       3.24338729       8.39447490      36.71789195       53       0.45806500      -0.47960300      -0.22206800 
I       3.41662702      20.21131885      15.09953274       53       0.26812500       0.47629700       0.30605700 
I       3.42255983      19.19330060      36.41246004       53      -0.09317800       0.10968800       0.52628600 
I       8.97012135       7.58226256      16.27210163       53      -0.20320100       0.07731700       0.35193300 
I       7.66018643       7.72957605      36.35863446       53       0.23447900       0.47109400      -0.00361800 
I       8.29963910      20.32185970      15.46129317       53       0.07509400      -0.64282800       0.44465900 
I       7.97887851      18.48429863      35.79318639       53       0.53376400       0.47496100       0.13684800 
I      13.08888747       8.16090340      16.11054919       53       0.17020600      -0.17893400       0.49527800 
I      13.41263313       8.53316497      36.26714247       53       0.23784800      -0.04809800      -0.02862300 
I      12.75045599      20.21160605      15.84713738       53       0.44129500       0.29827300       0.08354800 
I      13.21108554      19.09881733      36.12431851       53       0.14620400       0.52157100       0.12983200 
I      17.71007100       7.66038757      16.09372850       53      -0.14844700       0.07761300      -0.05790300 
I      18.24468338       8.20235842      36.41893512       53      -0.26400300      -0.66751000       0.39599600 
I      18.30656627      20.21190155      15.84589524       53       0.01126700       0.08940300      -0.52374800 
I      18.34643077      20.00272384      36.50001203       53      -0.45116500       0.28367700       0.20531800 
I       0.83172053      10.00152108       6.11982371       53       0.14409200       0.08323200      -0.17896300 
I       0.79440873       8.31359292      26.23522430       53       0.14207300      -0.22307200       0.10527200 
I       1.30397412      20.79717093       6.31955372       53      -0.14369800      -0.11505900      -0.56214700 
I       1.11707918      20.04239964      26.16541994       53      -0.16243200      -0.08172400      -0.07349900 
I       6.78046425       9.36841699       5.77339403       53      -0.20828100      -0.11912200       0.36852100 
I       5.63325445       8.68236966      26.20274418       53      -0.06652800       0.57356700      -1.13621700 
I       5.89348212      20.48401454       5.78526172       53       0.01024900       0.08117000       0.07420500 
I       5.59893186      20.21672287      26.07311714       53       0.22260200       0.12084500      -0.18946800 
I      11.37869728       8.88771521       6.20456586       53      -0.07573700       0.04243100      -0.26025100 
I      10.93657951       8.61287429      26.96088002       53       0.10284000       0.17626600      -0.83893000 
I      10.52256431      20.49556186       5.71290362       53      -0.00926600       0.07366500       0.20884200 
I      10.76513456      19.80437698      26.00067298       53       0.08021000       0.00182400       0.21850500 
I      16.10497824       9.19335967       6.16251880       53      -0.55362400       0.32952500      -0.07583900 
I      16.07227727       8.26313500      26.36389329       53      -0.23367300      -0.27554400       0.09013000 
I      15.59961621      20.58225637       6.04415083       53      -0.00211400       0.45300100      -0.82582300 
I      15.48339139      20.58761996      26.51277760       53      -0.24285100      -0.65052600      -0.30107400 
I       3.52979315       2.95708719      14.02493194       53      -0.04358400      -0.10870000      -0.20041400 
I       3.61228016       1.91607386      34.92271492       53      -0.19084500      -0.29266700      -0.49210000 
I       3.07483201      13.88839539      14.07624837       53       0.37272700       0.03183500      -0.30570800 
I       3.53981215      13.37754225      34.52939509       53      -0.56249700       0.44695300      -0.24660500 
I       8.44112865       2.04038812      13.65383164       53      -0.08171500      -0.10664700       0.46393000 
I       8.44432523       1.58459440      34.65830049       53      -0.04784000       0.01748900      -0.19340500 
I       8.42614317      13.87928570      14.02681174       53      -0.37885100       0.26516900       0.22936300 
I       8.60902138      13.35093791      34.41704288       53      -0.07963100       0.09204600      -0.34862800 
I      13.55389768       2.45956472      14.14860440       53      -0.08869200      -0.18834200      -0.11338400 
I      13.89885713       2.07945322      34.69603739       53      -0.40438400      -0.32130200       0.21560600 
I      12.84700050      14.22890678      13.86571758       53       0.21906000       0.44956300       0.14078400 
I      13.47698992      13.59413545      34.75697882       53       0.05464900       0.36357100      -0.06712200 
I      18.20641147       2.20674114      13.66284283       53       0.10240200      -0.03000600       0.29911800 
I      18.05595531       1.81260946      34.64144454       53       0.01602600       0.29209500       0.18591000 
I      18.63145763      13.53242157      14.12241273       53      -0.20675300      -0.10953000      -0.25641000 
I      18.54224463      13.11383597      34.77097515       53      -0.39789800       0.19143400      -0.21588700 
H       5.09609350       0.03741030       6.95400363        1      -1.73234000       0.93323200       0.74742600 
H       2.96158086      -0.98509021      27.79662039        1       0.43732300       0.12059900       0.44469000 
H       3.85816519      11.30705149       6.35669029        1      -0.54567800      -2.70577900       0.42680500 
H       1.72042901      12.49374840      28.03551711        1       0.64417200      -0.78786700      -1.83481300 
H       9.00759386      -0.12935435       6.51141928        1      -0.31747700      -1.16050300       0.35386700 
H       9.17822904      -0.35340038      26.47088918        1       0.91406800      -0.63045700      -1.31686800 
H       9.66729813      11.59109024       5.80221927        1       0.00651900       1.76322200       2.24795600 
H       9.48389528      11.34667649      27.34687561        1      -0.45731800       1.28204600       0.09863500 
H      13.75101796       0.87884811       5.08891337        1       1.00200800       0.54233500      -0.67133400 
H      14.29758513      -0.49956194      27.14567950        1      -2.87280400       1.57233600       1.31303100 
H      14.44683648      13.06344959       6.07425554        1       0.08576400      -0.94931700       0.36697700 
H      13.69051822      11.42081692      25.80241633        1      -0.37223500      -0.49109100      -0.02439200 
H      19.42826769      -0.35325522       7.13289518        1       0.55761700       0.79352400       0.20042100 
H      19.40684135       0.02097013      27.96724416        1      -1.42782200      -0.07349700      -1.23911700 
H      17.15986866      13.73947272       6.31112419        1       0.67347000       0.47824800       0.09817000 
H      18.41754985      12.89886542      26.35249218        1       0.28071500       1.00876700       0.91148000 
H       2.12168276       9.03972663      13.52479041        1       0.29626500       0.61711000       0.05157600 
H       0.56799663      10.21914076      32.83002642        1       0.06628200       0.26664100       0.85326000 
H       0.06933467      22.74818948      12.30428209        1      -0.14468400       0.68848500      -0.70220000 
H       0.04312330      20.76428126      33.27330234        1       1.08339200       0.57490300       1.04958200 
H       7.35060922      11.03739374      13.67577433        1      -0.42041700      -2.52894500      -0.35882200 
H       6.56793962       9.51266039      33.11001837        1      -0.34904100      -0.36313600       1.53820200 
H       7.14513303      21.44107166      13.47974688        1      -1.57567500       0.88819900      -0.81148200 
H       6.44721076      20.46805236      33.54385178        1      -1.16684700       1.60445700       1.67262900 
H       9.76384991       9.55070731      13.33020626        1       1.85416600       1.36992300       0.42210000 
H      10.02760284      10.33470718      35.31768852        1      -0.14219500       0.15917100       0.99047400 
H       9.60857450      22.39751081      12.77955807        1       1.79964000       0.60947000       0.53413800 
H      11.10468376      20.88499250      32.47313603        1      -0.48837400       0.43568600       1.74845600 
H      14.58091364       8.91165900      14.01620173        1      -0.04422000       0.81395100      -1.12196700 
H      17.32090683       9.40811871      33.46218802        1      -0.85139400      -0.57666200      -0.54583200 
H      14.45428930      22.08890513      12.64976410        1      -1.05013600       1.01972600       0.77469900 
H      16.43083075      20.79359590      33.56315985        1      -1.17704600       3.13359700      -0.90272800 
H       2.75488327       8.36388598       3.94036707        1       0.82697300      -0.05725200       0.44047000 
H       2.56026075       6.66009207      22.46434151        1       1.63375000       0.63834300      -0.03923600 
H       3.15021251      17.85871787       4.70954425        1      -0.39081400       0.57662300      -1.53559400 
H       4.32739742      18.91483073      22.53619570        1      -1.65037900      -0.55205300       1.67948000 
H       8.54929927       6.42047371       1.60082616        1       0.78414000      -1.29037300       0.83934500 
H       8.32269017       6.82739277      22.47646530        1       0.86227500      -0.76362800       0.17886800 
H       8.48285843      17.65698780       2.04760143        1      -0.44908600       0.65308600       0.91899600 
H       9.35784742      19.16509331      22.67119047        1       0.10892500      -0.59007300      -0.01667100 
H      14.38943483       7.83391969       2.38601114        1      -0.33585200      -0.34195800       0.35332400 
H      14.69009519       6.83622251      23.38974590        1      -0.47458500       0.49045200       1.00605000 
H      11.32290273      18.21534801       2.53435940        1      -0.23700500      -1.32185500      -0.71075200 
H      14.09670838      18.34675945      22.77444025        1      -0.61750200       0.19116000       0.10005700 
H      17.61992484       8.27434948       4.31904877        1      -0.27554300      -0.64420100      -0.94968500 
H      19.74531638       6.81326787      23.52818506        1      -2.07807900       0.21080000      -2.02820500 
H      19.56672033      17.32213134       2.92768338        1       0.63935800      -2.05280300       0.39816900 
H      18.08322115      18.82599099      24.12391514        1      -0.20247400      -1.26965500      -0.88913800 
H      -0.07912246       4.71532257      15.31462978        1       0.33191500       0.48162600      -0.24150400 
H       0.62286838       5.55691694      36.26206298        1      -1.53790900       2.03146800      -2.01219100 
H       1.64320397      18.13050840      17.08021741        1      -0.52694400      -0.44454700      -0.06516700 
H       2.01559204      15.87578843      36.48866897        1       0.26023500      -0.17832900      -0.84737300 
H       6.02881490       4.47457094      17.55079028        1       0.64298500       0.79015300       0.80854300 
H       6.84327615       5.29458345      36.95698256        1      -1.00059100      -2.13466900       0.76527000 
H       5.14996471      17.36164539      15.39882344        1       1.23277700      -0.04774100       1.21153900 
H       5.09980333      15.58675107      36.27620966        1       1.76986200      -0.53807200       2.51910000 
H      12.52641825       4.29491523      17.40407505        1       3.36836500      -0.29844200       0.47795600 
H      11.88593807       4.35040288      37.55240262        1      -0.52609200      -0.23621200      -0.45088400 
H      11.38811492      14.62991895      16.62491308        1       0.29580400      -0.60457400       0.34746600 
H      10.18183621      14.27970583      36.91861111        1       0.93777400      -1.41567200      -0.48776400 
H      16.89429711       4.16531412      16.99547631        1       0.08620600       0.05189600      -0.82913700 
H      15.07781297       4.16981194      36.45553565        1      -0.37566200      -0.60585300       0.56343700 
H      16.95859894      17.18684833      16.18788620        1       0.94929900      -0.44591500       1.83629100 
H      15.97635071      15.50158900      36.14408487        1      -0.78629300      -0.91059800      -1.83449700 
H       4.67459334       0.40699682       5.32349994        1      -1.98775600       0.64870400       1.46019000 
H       2.90167627      -0.08594695      26.31889227        1      -0.76331600       0.51845000      -1.22872700 
H       4.89809710      12.53991898       6.86337430        1       1.04124700       0.67972400       0.27097300 
H       2.60069759      10.89530801      27.72529187        1       0.49709800      -0.30378100       0.25213200 