768
Lattice="20.1658624673 0.179823451995 0.0882460478484 0.198333723775 22.4516039322 0.378792452896 0.137998817606 0.668751816722 39.3297163851" Properties=species:S:1:pos:R:3:Z:I:1:forces:R:3 energy=-99810.6704887 stress="2244.635365 -4583.072869 -633.706082 -4583.072869 -1785.92726 -1243.986961 -633.706082 -1243.986961 2435.33278" pbc="T T T"
I       3.98696845       4.07437088      20.09647974       53      -0.25963700      -0.54692900       0.35409900 
I       3.43595740       4.53099351      39.24262595       53       0.06992600       0.20483200      -0.19856100 
I       3.99045888      15.15255815      19.23822342       53      -0.51568300       0.64355400       0.18339500 
I       3.97668907      15.85668023      39.26493659       53       0.02075900       0.06681100       0.29268000 
I       8.77803456       4.05470090      20.47102127       53       0.08852500      -0.19833700       0.01237000 
I       8.49713533       5.26435475      38.93603546       53      -0.39556900      -0.10280200       0.59652500 
I       8.69124175      15.78400001      19.93587367       53       0.15489400      -0.28495700       0.06232400 
I       8.54612762      16.20876846      40.06571418       53       0.01385900       0.12874600      -0.21994300 
I      13.67950855       4.23197606      19.89134886       53       0.34340900      -0.18233200       0.34384500 
I      14.02138001       4.90958891      38.98332307       53       0.09831500       0.31148200      -0.08828700 
I      14.77519738      15.49406220      19.86122297       53      -0.70163400       0.21404100       0.05155600 
I      13.95520753      16.08196243      38.98694384       53       0.19327800      -0.00827500       0.20401000 
I      19.03410036       4.18526728      20.32153923       53       0.18108800      -0.24337800      -0.09498400 
I      19.48230941       4.72108094      39.06666547       53      -0.45827100      -0.03219400       0.07196400 
I      19.08544492      15.53070917      20.24323799       53      -0.17328400      -0.07387300      -0.24952100 
I      19.39914148      16.14608437      39.45685905       53       0.00798000       0.10460800      -0.16497900 
I       1.63623270       8.15180731       0.37750856       53      -0.08890700      -0.54688500       0.46250200 
I       1.19996870       8.09020185      19.60859204       53       0.40330100      -0.12185500      -0.10292300 
I       1.32338899      19.40057624       0.85218988       53       0.46830400      -0.38572100       0.12215200 
I       1.65949677      18.89764509      19.03451396       53      -0.67181800      -0.96074300       0.82370500 
I       6.16837463       8.72877133       1.07998548       53       0.43960400      -0.38542700      -0.08098100 
I       6.20472089       7.82570386      19.78670260       53       0.08829700       0.38659100      -0.18155800 
I       7.04323538      19.17884913       0.69685488       53      -0.90287500       0.09573200      -0.20224400 
I       6.39369788      18.98792834      19.60528839       53      -0.56710400       0.01764700       0.03055700 
I      11.45859409       8.03904819      -0.01715146       53       1.06493900      -0.66630300       0.12797100 
I      10.90404437       7.28137502      19.53195750       53       0.04161100       0.57742700      -0.53061000 
I      11.35149601      18.90230550       0.52073122       53       0.02862600       0.42995400      -0.24089000 
I      11.52454694      19.35248401      19.82369030       53       0.45046100      -0.50083100       0.08365100 
I      16.54230743       7.72261963      -0.03983259       53      -0.09763200      -0.13855900      -0.05556800 
I      16.23168770       8.08958402      19.96041754       53       0.26857500       0.46944300       0.22392500 
I      16.40115686      18.70702603       0.46924606       53      -0.66035400       0.19057500      -0.30079300 
I      16.81356358      19.42586725      19.99004875       53      -0.14419900      -0.43424500       0.14886600 
I       4.18701198       9.29428394       9.81264955       53       0.66592500       0.23599500       0.05393200 
I       4.26775375       9.64341029      28.82546351       53      -0.11627200      -0.06935500       0.42569800 
I       3.99100898      20.75287495       9.31057742       53      -0.03798900       0.13460000       0.19349700 
I       4.19527058      21.02247363      30.54949068       53      -0.47331100      -0.10549900      -0.73481900 
I       9.50464688       9.69794560      10.40610718       53      -0.65074900      -0.01695400       0.02271100 
I       9.30562041       9.33567240      29.09183141       53       0.06047300      -0.50477200       0.84731700 
I       9.19268271      20.68451441       9.66807834       53       0.08023900      -0.16924600       0.02920100 
I       9.65962474      20.78497441      29.99127504       53       0.36503100      -0.23399000      -0.54046200 
I      13.99291877       9.56278141       9.84913437       53       0.25770800       0.17904800       0.08809800 
I      13.92857721       9.48322706      29.41165188       53       0.28607800       0.46139500      -0.02065100 
I      14.08385064      20.50786016      10.69674082       53      -0.28389800       0.16520400      -0.55523400 
I      14.05134066      20.58599617      29.65500818       53       0.36317700      -0.03470400      -0.62569500 
I      18.98573001      10.01825458      10.93728403       53       0.02041000      -0.35327900      -0.51576600 
I      19.18812274       9.23479471      29.85017578       53      -0.01022800       0.42183900      -0.01048400 
I      19.03070537      20.94642203      10.01413298       53       0.01572000      -0.40527400      -0.34139800 
I      18.90716193      20.59291135      30.04525512       53       0.25063500      -0.07931700      -0.31496700 
I       0.76506147       2.06459113       9.40131326       53       0.85165600      -0.13651200       0.11842600 
I       1.59122141       2.01365504      29.73889041       53      -0.33063400      -0.06668700       0.23925100 
I       1.52779941      13.15496464       9.86280976       53      -0.35284600       0.06046900       0.36526900 
I       1.70488676      13.15761043      28.99624838       53       0.26861300       0.28953400       0.40938600 
I       7.10531089       1.97114074       9.49870566       53      -0.27165200       0.32576100       0.54731600 
I       6.55102595       2.24816262      29.10261573       53       0.18129900      -0.01545200       0.21390600 
I       6.10072531      13.38902988       9.98449869       53       0.70702200       0.02280400      -0.04258200 
I       6.76985480      13.30753788      30.17833285       53      -0.15895200      -0.19177500      -0.11241900 
I      11.66274793       2.14243054       9.88693387       53      -0.20772600      -0.27531200       0.15183100 
I      11.91264481       2.33505190      29.70449308       53      -0.43882300      -0.21901300      -0.00246200 
I      11.20766886      13.77952826      10.19381891       53       0.23398800      -0.35457500      -0.00909900 
I      11.66059476      13.44054480      29.42401875       53      -0.07062600       0.02597800       0.12018700 
I      16.70101176       1.90500110       9.95694367       53       0.02554100       0.48573300      -0.15345600 
I      16.62651295       2.23800229      29.71051847       53      -0.24373200      -0.08494000       0.43378600 
I      16.35768707      13.29041106      10.98843872       53      -0.33043000      -0.25534600      -0.08509200 
I      16.92114196      13.18073698      29.17365901       53      -0.09906200      -0.10093700       0.02596600 
I       0.75864712       1.01047138      17.39442444       53       0.58252900      -0.03996300       0.07829200 
I       1.50974994       0.71813204      37.48618938       53      -0.16503200       0.64293600      -0.30109000 
I       1.05560685      11.90991692      17.34205462       53       0.02940800      -0.03381700       0.63522400 
I       1.47086359      12.37239661      37.85754221       53      -0.69175600       0.68658800      -0.43077900 
I       6.17493471       0.72831290      18.13192884       53       0.16665500       0.09349200      -0.46195500 
I       6.57051428       1.46422859      37.69826007       53      -0.55121600       0.20612100      -0.53703500 
I       6.22382847      12.68934140      17.59151430       53       0.50480700      -0.83468400      -0.06138200 
I       6.66029362      12.72586214      37.58534495       53      -0.05909700      -0.22116800       0.01558000 
I      11.15448210       0.65326296      18.02709580       53       0.17121900       0.42300200      -0.06649400 
I      11.42119997       1.69431283      37.47221123       53       0.04430500      -0.24711700      -0.04064100 
I      11.54931966      11.94782008      17.74902813       53      -0.37722900      -0.00781300       0.00156400 
I      11.11043554      12.72419543      37.47776657       53       0.32537700       0.27650500       0.08906000 
I      16.90676663       0.89265468      18.13342518       53      -0.90180000       0.40424700      -0.33814200 
I      16.37207676       1.15171535      37.33868809       53      -0.23987900       0.35226600       0.68433000 
I      16.09590876      12.12086074      18.35003416       53      -0.44269700       0.11170000      -0.52556600 
I      16.53452092      12.62960996      37.72683830       53       0.30723100       0.07095800      -0.18590200 
I       3.63179517      11.37900587       2.52151857       53       0.10478200      -0.28395400       0.35059500 
I       3.90140617      11.28071341      21.68792693       53       0.48862000      -0.36102700       0.21127700 
I       4.10970727      22.38210113       2.26153730       53       0.03710400       0.33191200       0.33042600 
I       4.17568065      22.00536229      22.39330930       53      -0.26906800       0.12229000      -0.52895300 
I       9.28974361      11.68717172       2.55894655       53      -0.21125800      -0.28894800      -0.12795000 
I       9.08651446      11.54560961      21.63475763       53      -0.03878600       0.01908400      -0.02290000 
I       9.12870753      23.38353290       2.52906492       53      -0.72888700      -0.81235700       0.51185100 
I       9.27557970      22.39296652      22.54990050       53      -0.14652700      -0.06963100      -0.04706900 
I      13.77679729      12.04308496       1.93038140       53       0.21831600      -0.38126100       0.13830800 
I      13.83547986      11.29710746      21.90121687       53      -0.23376800       0.30890300       0.02423800 
I      13.66231604      23.05889294       2.42817593       53       0.21478900       0.02039300       0.03011500 
I      14.34052312      22.37336837      22.24441635       53      -0.17692900      -0.07186300       0.19495000 
I      18.66233290      11.59478047       2.26960604       53       0.09949400      -0.11847100      -0.11091300 
I      19.37244547      11.39525521      21.79994302       53      -0.10332600      -0.14455100      -0.18885600 
I      18.37146937      22.61897842       2.74833610       53       0.22401100       0.19903900       0.19180800 
I      19.13853930      22.48717945      22.35254791       53       0.15753600       0.19493500      -0.36378800 
I       1.51534839       6.30255870      11.92391046       53      -0.04442200      -0.33051100      -0.14330000 
I       1.26241778       5.94468832      31.96716342       53       0.54366600       0.21744600      -0.17478200 
I       1.23816949      17.40290062      11.67785090       53      -0.07461700       0.01686300       0.50093000 
I       1.46435277      17.12858714      31.66838304       53       0.13466700      -0.14973500      -0.35471300 
I       6.33134117       6.21420695      12.01388069       53       0.21814200      -0.41985100      -0.01977700 
I       6.43797536       6.09795021      31.55606522       53       0.19303300       0.08835100      -0.08067000 
I       6.22200577      17.75218296      11.43367254       53      -0.14804400       0.06486000       0.31549800 
I       6.61171904      17.45193601      32.12084404       53      -0.07804200      -0.13662000      -0.53197500 
I      12.13034474       6.30409301      12.22830057       53      -0.24338700      -0.22080900      -0.42132600 
I      12.00993355       6.77064813      31.79970375       53      -0.09420800      -0.62649500       0.02655200 
I      11.44474935      17.54187750      12.21808688       53      -0.33524400       0.29948600      -0.11991600 
I      12.06052173      17.22591282      31.38184637       53      -0.12058500       0.02495000       0.07265600 
I      16.47060527       6.00485183      11.92925952       53      -0.50595100       0.42574300       0.41800800 
I      16.80663403       6.20962146      32.01455776       53      -0.27260200       0.04321400      -0.15420600 
I      16.24860208      17.49433947      12.80058674       53      -0.03597200      -0.19004000      -0.25680400 
I      17.10617284      17.12033572      31.28028516       53      -0.53219700       0.10761600       0.01930200 
I       4.22551655       5.33154018       7.91963661       53       0.13738600       0.10918200      -0.04432800 
I       3.67342378       5.39354282      27.44740785       53       0.55341400      -0.20883900       0.10514100 
I       3.81450251      16.64487954       7.54296654       53       0.21496600       0.29713800       0.06640300 
I       4.53501966      16.79912565      27.74254796       53      -0.46463900      -0.25946800       0.00168300 
I       9.55413487       5.21139891       7.98776726       53      -0.38154300       0.19639900       0.13639300 
I       9.36647667       5.40798383      27.28525619       53      -0.39267700      -0.41397400       0.34432700 
I       9.12119710      16.82662935       8.05642132       53       0.48586300      -0.27702800      -0.61373900 
I       8.81766600      17.10094386      27.78039364       53       0.11190400      -0.02838800      -0.08396400 
I      13.94341026       5.18889635       8.47782968       53       0.20310300       0.06063000      -0.40179100 
I      14.63614045       5.19728837      27.74258080       53      -0.59475200      -0.10104900      -0.12943400 
I      14.28926580      16.27634594       8.75574341       53      -0.09232400       0.35458300      -0.37038700 
I      14.29993928      16.44367116      27.50699253       53      -0.29992800      -0.11186500      -0.02915800 
I      19.48454776       6.17908505       8.00000173       53      -0.46733800      -0.39698100      -0.22614100 
I      18.81445458       5.14015961      28.00998936       53       0.71976900       0.16102700      -0.10350100 
I      18.70084158      16.57059625       8.28250609       53       0.10420100       0.26739200      -0.06304700 
I      19.20529164      17.01017312      27.19195358       53       0.12380900      -0.21308200       0.15524900 
I       1.90711219       3.65758804       3.65802626       53      -0.52140800       0.04532400       0.07457500 
I       0.84750792       3.09107171      23.73453223       53       0.60368700       0.01339900      -0.32868300 
I       1.41871648      15.09862733       4.55112225       53      -0.25787400      -0.20559000      -0.45597000 
I       1.59218408      14.91318594      23.58729470       53      -0.01841800       0.17799000      -0.12678300 
I       6.46359581       3.97189832       4.17540560       53      -0.16542700      -0.73331600       0.13447800 
I       6.23120241       3.38555498      24.07591004       53       0.08512600      -0.21669200       0.14966600 
I       6.09607003      14.55729938       4.34964601       53       0.02527200       0.20058500       0.21077200 
I       6.18394353      14.33267811      24.37828143       53      -0.01807400       0.07970700      -0.26704900 
I      11.57698860       4.49843017       3.98952495       53       0.22679000      -0.29941400      -0.32971200 
I      11.57912227       3.64468750      24.10146892       53      -0.13370100       0.07927800       0.03412200 
I      10.82096982      15.09029997       4.32009895       53       0.71962600      -0.17341900       0.26347300 
I      11.22106818      14.93125285      23.94031892       53       0.01642500      -0.08875500       0.06126200 
I      16.63444519       4.22276095       3.63438246       53       0.06128300       0.23728400       0.31994300 
I      17.20739845       3.34135858      24.13744777       53      -1.15028200       0.35640600      -0.04864400 
I      16.31779187      15.04427778       4.35774348       53       0.08975900       0.25475900       0.02122400 
I      16.66181855      14.82537914      24.43383688       53       0.10090000       0.09653100      -0.44569800 
I       3.49500328       8.34578646      15.82544491       53       0.40543100      -0.49133800       0.12725200 
I       3.73286376       9.09396947      35.78545604       53       0.18037100       0.51790800      -0.14078500 
I       3.68836870      19.87187079      15.91855971       53       0.39603500       0.33088400      -0.26045900 
I       4.06622620      19.78165528      36.06791216       53       0.09013100      -0.40852300      -0.34319300 
I       8.16379855       8.80018613      15.53102527       53       0.26192700      -0.53846000       0.32984600 
I       9.15284190       9.23184821      35.85734191       53      -0.36556100      -0.03412900       0.02991800 
I       9.10063834      19.95758702      16.21323285       53      -0.09114100       0.28613300      -0.10239500 
I       8.87224236      20.59805001      35.94429482       53       0.47582600       0.04852000       0.16937000 
I      14.40864864       8.14173114      16.23981391       53      -0.37555200      -0.15945700       0.34900800 
I      13.80561260       9.04323659      35.36701983       53      -0.36735200       0.37538800       0.20756600 
I      15.00833177      19.86024491      15.99505159       53      -0.62671900       0.37518500       0.13317900 
I      13.84872831      20.47462973      35.92037597       53       0.27974600      -0.11418900       0.37406800 
I      18.94377606       8.45553751      15.53801537       53      -0.31860400      -0.05875500       0.45866400 
I      19.32119020       9.04237450      35.02483946       53      -0.22025900       0.35472100       0.22803600 
I      19.25854921      19.66969666      15.86038721       53      -0.05088200       0.47165000       0.22713200 
I      19.44054841      20.08107196      36.69011940       53      -0.31156400      -0.02217200      -0.64723400 
I       1.14466367       9.58371887       5.96359371       53       0.19175700       0.16008200       0.18152200 
I       1.36226713       8.36662848      25.38668483       53       0.16759400       0.57088000       0.26740100 
I       1.09463585      20.41612163       6.08637462       53      -0.29591100      -0.29166000      -0.43203400 
I       2.00781234      20.38876571      25.59309345       53      -0.36736200      -0.55824500       0.42813900 
I       6.78373545       8.53708698       5.99980759       53      -0.02839800       0.54628000      -0.12846600 
I       6.69991069       8.83835202      25.26486249       53      -0.15918500       0.18409200       0.52322600 
I       6.66401702      20.89997496       5.89493247       53       0.20999200      -0.20220600      -0.06319200 
I       6.31158395      20.88462671      25.95060976       53       0.13938000      -0.35967100       0.47554000 
I      11.11143720       9.45739930       6.31233007       53       0.24421100      -0.03511700       0.09417200 
I      11.06096808       8.59915940      25.47087701       53       0.83659500       0.35662600      -0.07284300 
I      12.25150923      20.72304977       6.19112658       53       0.20315800      -0.49301500      -0.15761900 
I      11.66636357      19.30706632      25.05174292       53      -0.33186800       0.82031800       0.01465700 
I      16.14217726       9.01920484       5.97912259       53       0.28893000       0.05731800       0.31417200 
I      16.79860326       8.87658564      25.69173895       53      -0.02558800       0.11968700       0.19968500 
I      16.40162895      20.21862023       6.23241651       53       0.12984500      -0.12296100      -0.21037900 
I      17.07823604      20.32636077      25.49283769       53      -0.42027000      -0.21596500      -0.07269600 
I       3.97094079       2.75829323      13.77212662       53      -0.00358600      -0.13216000       0.27218900 
I       4.50279090       2.11105770      33.57416208       53      -0.20805800       0.10268300      -0.06638200 
I       4.65290616      14.51992784      13.59142158       53      -0.32639600      -0.42231100       0.19168700 
I       4.46348787      14.26286229      33.85494636       53      -0.48188400       0.21831300       0.10050100 
I       8.73382481       2.57375600      14.42654621       53       0.08843300       0.55373300      -0.03439500 
I       8.74519822       2.38036286      33.30946704       53       0.27569100      -0.00826600      -0.04154100 
I       9.11368769      14.14817167      13.89135243       53      -0.13706700      -0.00405500       0.38988200 
I       9.18181321      14.19293459      33.45006136       53       0.09629000      -0.12274000       0.74628600 
I      14.06495653       2.61927017      14.67685771       53      -0.02001700      -0.19263600      -0.28144000 
I      13.68066313       2.13970880      33.84573227       53       0.12219100       0.59731500      -0.03341600 
I      13.90304810      13.68361270      14.77401919       53       0.18116800      -0.09704600       0.05623800 
I      13.88210448      14.09215337      33.85223283       53       0.76349700       0.86169200      -0.13627100 
I      19.46392024       2.83724103      13.61751412       53      -0.12069100      -0.30898600       0.49721500 
I      19.68011562       2.65318411      34.29030002       53      -0.75465100       0.63544200       0.27468200 
I      19.41647767      13.93881348      14.03795263       53      -0.12200200      -0.13613700       0.58348800 
I      18.63671759      14.27525070      33.84958909       53       0.19188300      -0.45900200      -0.39106800 
H       2.52295435       0.23889807       6.14912953        1       0.57977900      -1.19398000       0.22789700 
H       4.35941532       2.36220666      26.46336872        1      -0.79276600      -0.14686800       0.25423900 
H       3.88855592      11.22786841       6.45672168        1       1.81566500       1.26015900      -0.86966800 
H       2.79219075      12.94553974      25.30694575        1       0.02195300       0.14004500      -0.22165900 
H       8.50480792       2.17768996       5.58854108        1       1.03908200       0.11328600       1.05962600 
H      10.46528545       0.74284114      25.29438902        1      -1.14579100      -0.29976700       1.23719400 
H       9.76860401      13.76290945       7.53538324        1      -1.46869800      -0.78554300      -0.09633600 
H       9.89604430      12.28100702      26.73195547        1       1.74776300       1.03994500      -0.82560500 
H      14.96710341       1.49767763       5.32641281        1       3.09822000       0.16835000      -3.57391000 
H      12.48032394       0.79655233      26.99652940        1      -0.82073800      -0.10918800       1.48405900 
H      14.71612687      12.16403803       5.73804262        1      -0.48468500       1.31523800       0.19669000 
H      15.28321793      11.51144011      25.87248196        1      -0.74170000       1.48314400      -0.20007500 
H      17.95798607       1.56660571       5.27444837        1      -0.40671800      -0.52162800       0.66720400 
H      18.87773393       1.87928110      25.34855588        1      -0.70943200      -0.37560500      -1.13919600 
H      19.93843941      13.57632990       7.67500874        1      -0.48083400      -2.04457000      -2.62927600 
H      20.95422906      12.44767028      25.13693060        1      -0.31602100      -1.54102300       0.10659900 
H       2.82721618      10.94522346      12.86396358        1       0.49252000      -0.18315000       0.09283900 
H       2.84149195      11.99689241      32.10349450        1      -0.60959800      -1.28535900       0.97321100 
H       1.10067663      22.64955382      12.03670243        1       0.15305500      -1.63019000       0.86622000 
H       2.23213290      20.44157479      33.58640168        1       0.21838600       0.90734400       0.15176600 
H       5.30839618      10.77212943      12.39793701        1      -1.98973400       1.33908000      -2.78976100 
H       5.93454236       9.09787863      33.61809267        1       1.60754200       1.43059400      -2.00558900 
H       6.22116934      20.98848785      11.93874659        1      -0.77390600       1.74326900       1.49276800 
H       7.19889573      20.39084088      33.72875404        1      -0.02326300      -0.33269100       0.14522900 
H      11.08259829      11.22407625      12.37742033        1      -0.14655500      -0.59002300       2.87648200 
H      10.33466262      10.34109544      33.32304596        1      -2.11987200      -2.22479800       1.09663600 
H      12.40340204      20.69306140      13.55004441        1      -1.67433200       2.40761500      -0.87861700 
H      12.13132998      19.89825685      33.55615058        1      -0.13140800       0.99302000       0.70657100 
H      14.28104722      10.41295462      13.68501052        1       2.90267700      -1.17922200      -0.70324500 
H      17.73336378      11.18396963      32.34302272        1      -2.12424400      -0.79767400       0.47703100 
H      17.57896270      21.38495311      12.41564472        1       2.62445300      -1.35231200      -1.54326300 
H      18.04224598      22.19481137      32.78489850        1       0.14835900       0.03819700       0.83217100 
H       4.10894474       7.81521204       4.77371350        1       0.56787100      -0.76514900      -0.46251000 
H       5.09016258       6.98324018      23.91785535        1      -0.96937800      -1.77432500      -1.34710700 
H       4.44489652      17.53452819       5.05409444        1      -0.24032800       1.27658400      -1.12171800 
H       4.39821135      16.93813023      22.24171104        1      -0.03853300      -0.00548500      -0.52562300 
H      10.22317199       7.17561523       2.37355339        1       0.61978400      -0.46966400       0.15852500 
H      10.22131029       7.72670839      22.34893022        1       0.11964300      -0.83877800       0.61746200 
H       9.09311457      19.27736019       4.56456159        1       0.05116000       0.28855000      -0.15346600 
H       8.92314971      17.90434877      22.39491135        1      -0.97394800       0.45575000       1.45022200 
H      13.16896126       9.01370698       2.73680259        1      -3.20402300       1.85753100      -3.30735300 
H      14.80729478       7.97525158      23.60097625        1       0.83031100      -1.36245000      -0.55880000 
H      13.19116312      18.99346520       2.68286254        1       0.69621900      -0.55548800      -0.18775900 
H      15.33225845      18.21898849      22.31486541        1      -2.51128900       0.05149600       0.22399100 
H      20.42938137       8.29819302       3.44860341        1      -0.09913200      -0.21339600      -0.20869800 
H      19.93143700       7.38618753      22.75451412        1      -0.91703600      -1.59061400       0.76339600 
H      19.60594727      18.77035157       2.96169583        1      -0.08392900       0.22674900       0.08805500 
H      20.09515171      18.88508734      22.14567233        1      -0.55698600       0.16551100       1.47334300 
H      -0.00643898       4.60648064      16.77938998        1       0.52539500       0.30133400       0.98009100 
H       1.04650155       5.15531903      35.48806219        1       1.28078100       0.98360300       0.07807200 
H       3.06958004      16.74094186      14.99525060        1      -0.23056100      -0.66947900       0.90310000 
H       1.35521237      16.46092319      34.76185628        1      -0.21362300       0.57655700      -0.15962700 
H       6.32496171       5.53525478      17.93825450        1      -0.10055600      -0.19647300       0.39831300 
H       5.86394860       5.68688691      34.69996448        1       0.40250800      -1.03681500       0.96382500 
H       7.48085717      16.83556941      14.52777182        1      -1.54409200       1.30952600       1.63083100 
H       6.79245486      16.30068762      35.23022999        1      -0.32585700       0.28642400      -0.59205900 
H      10.38901319       5.76312529      15.74454612        1       0.10482000       0.12974300      -0.14293200 
H       9.70465552       4.93474958      36.24504979        1       1.23012800       0.76519200       0.25609200 
H      11.27992214      15.96678125      17.52460494        1      -0.30305400       0.91936700       2.24925600 
H      11.24753429      18.45235585      36.40370589        1       0.11255300      -2.80484200       1.74737500 
H      17.69545343       3.68303915      17.38044014        1       0.58971900       0.57648000      -1.24235700 
H      17.52928998       5.33519380      36.71629816        1      -1.98590800       0.61673700      -2.52169700 
H      17.44456207      17.30180535      16.67297131        1      -0.53731100       0.03258100       0.40499600 
H      16.75846586      16.10241958      35.22598934        1      -0.32588900      -0.72636400      -1.90108600 
H       4.28765363       0.53808896       5.28045836        1      -0.43651100      -1.28207700      -0.24910700 
H       3.76386610       0.77141732      27.19093036        1      -0.66457600       1.08886100      -0.78527800 
H       4.80555330      11.60979517       7.78015993        1       0.03809200       0.95465000       1.24070600 
H       2.89786022      11.11035651      25.78948439        1       0.27632700       1.14858000      -1.05651700 