768
Lattice="19.7392426969 -0.147791338736 0.09591540809 -0.157195704766 23.5324531374 -0.281445537535 0.148902980635 -0.466485175732 39.9425855169" Properties=species:S:1:pos:R:3:Z:I:1:forces:R:3 energy=-99809.1318733 stress="3673.905014 -2227.03352 -370.057272 -2227.03352 1912.180716 1230.183448 -370.057272 1230.183448 1382.090953" pbc="T T T"
I       4.20939693       3.36576546      20.11565170       53      -0.54430400       0.25849300      -0.00040100 
I       3.87241907       3.39822914      40.05408050       53      -0.15082400      -0.51079100      -0.52490500 
I       3.71479302      15.89892021      20.05772914       53      -0.23421800      -0.20252600       0.16267000 
I       3.93719399      15.20637560      40.26753545       53       0.10416600       0.15622000      -0.23625400 
I       8.64632373       3.27322750      20.00835751       53       0.04609400       0.19722400       0.26603300 
I       9.02787407       3.81078620      39.63028984       53      -0.22160200      -0.08032600       0.24212800 
I       8.67804182      15.38616294      20.08326476       53       0.22651800      -0.12627800       0.04513000 
I       8.75762688      15.18942099      40.25302085       53      -0.14670600      -0.27809800      -0.04179700 
I      13.67287390       3.85125432      20.46328037       53      -0.04778800      -0.18636900      -0.20422100 
I      13.88351759       3.70128533      40.06122218       53      -0.27690000      -0.19298800      -0.44201200 
I      13.92926187      14.76536279      19.49437350       53      -0.45698800       0.23904200       0.80093400 
I      14.13497991      15.13972271      39.62339704       53      -0.43513200       0.17505200      -0.09535900 
I      18.65081669       2.92419683      19.63025824       53      -0.06327500       0.30385300      -0.11770700 
I      18.99251592       3.57902235      40.22542994       53      -0.39147000      -0.19265400       0.07862700 
I      18.26780525      15.04765554      19.07208438       53      -0.19511800      -0.23056600       0.93103800 
I      18.56055904      15.12751125      40.29801227       53       0.18223900       0.59231800      -0.27368900 
I       0.76221303       7.87999286      -0.21287942       53       0.63882700       0.19195800       0.08312800 
I       1.27288805       6.96736078      19.50755558       53       0.20638100       0.39942300      -0.30239000 
I       0.90752910      20.14704625      -0.26888046       53      -0.17747000      -0.22290800       0.31382700 
I       0.89156791      19.23218259      19.32883011       53      -0.18477200       0.20908800      -0.13100000 
I       5.62881431       7.67022852      -0.40068261       53       0.67268000      -0.24813600       0.05990900 
I       6.09082388       7.33230286      19.39925449       53       0.18281100       0.14563600       0.15300100 
I       5.89307917      19.87165148      -0.19699808       53      -0.06889000      -0.43265000       0.49300700 
I       6.41990929      19.15690515      19.37628125       53      -0.34127800      -0.11348500       0.03200300 
I      10.96518177       8.05255763      -0.25479828       53       0.67873000      -0.09181100      -0.08490600 
I      11.21007067       7.95891632      20.52263085       53      -0.04728700      -0.29972600      -0.13684600 
I      11.26280730      19.68538614      -0.41624767       53      -0.25166900      -0.04300300      -0.17268700 
I      10.79167957      19.47264463      19.66758431       53       0.49668900      -0.59070700       0.10986400 
I      16.03702409       8.43771044       0.23559757       53      -0.22823900       0.10296600       0.35381200 
I      16.01488147       7.27557698      19.81663558       53       0.64180900      -0.19291400       0.57895500 
I      15.85166298      20.40518152      -0.15315667       53      -0.16665800      -0.25819100      -0.04789700 
I      15.68692948      19.35328519      19.41820321       53       0.24582400       0.05928600      -0.15734900 
I       3.75696075      10.15831952       9.45405808       53       0.20848300      -0.56434200       0.30511600 
I       3.79938980       9.21295726      29.74477575       53      -0.28609000      -0.21789800      -0.08239800 
I       3.69319482      21.48149250       9.88217087       53      -0.21018000       0.11965400      -0.24580200 
I       4.20502710      20.82721762      29.77849313       53      -0.61485900       0.26690300       0.03993900 
I       8.57412404       9.84969372       9.91469366       53       0.20573300       0.13025100       0.04089100 
I       8.34142276       8.90047908      29.71223534       53      -0.31594900       0.41641100       0.15300100 
I       8.21955901      22.17387223       8.99582208       53       0.37664000      -0.57917900       0.43536700 
I       8.73588038      21.10427777      29.98184479       53      -0.32136500      -0.07207900       0.01004200 
I      13.65583736       9.46032870      10.00982718       53       0.12985000      -0.14116500       0.09171700 
I      13.39440656       8.48080108      30.37808706       53      -0.04863600       0.34278600       0.11345800 
I      13.27279066      21.42307738       9.66201704       53       0.02878700       0.39986000       0.35227100 
I      13.13709776      20.82878034      29.59301796       53       0.22818900       0.14372900       0.23729300 
I      18.25510017       9.66055075      10.00528003       53       0.11576200       0.00850600       0.26244500 
I      18.43560303       8.80296050      29.84791164       53      -0.41942200       0.44810000       0.34711300 
I      18.28615252      21.58719492       9.74691765       53       0.01355200       0.02019500       0.16314600 
I      18.33363892      21.02919631      29.35964575       53       0.20647300       0.26042900       0.52337300 
I       1.56989761       1.98650096       9.49674534       53       0.14586800       0.14102900       0.19742900 
I       1.41296633       1.23185892      30.47550920       53      -0.46918400      -0.77543300      -0.06322300 
I       1.22578533      13.89421611       9.58618377       53       0.18781800      -0.46819000      -0.22274600 
I       0.79052983      12.76152042      29.78680141       53       0.00650400       0.30510700       0.02804000 
I       6.12505250       1.60384727       9.38428596       53       0.03974800       1.07682900      -0.11940800 
I       6.18475970       1.39388280      29.73977232       53       0.08560700      -0.05615500      -0.10865100 
I       6.29984574      13.70834896      10.11636748       53       0.20754600      -0.04134500      -0.32371600 
I       5.94940375      12.92855913      29.06273989       53       0.34629500       0.06579000       0.06311600 
I      11.46552018       1.85303446       9.79296680       53       0.28790500      -0.32407900      -0.16969300 
I      11.12489008       1.41416197      30.01851134       53      -0.05988000      -0.05632200      -0.12578300 
I      11.15376477      13.37935066      10.26278793       53      -0.00048300       0.41842600      -0.84610100 
I      11.31484292      12.73387558      30.00816229       53      -0.06138800       0.00120700       0.14739700 
I      15.84276778       2.14636585       9.25810113       53       0.13515800      -0.10026400       0.24568500 
I      16.61120372       1.27206883      30.24035960       53      -0.40023800      -0.08130200      -0.07487000 
I      15.61586839      13.76681490      10.26858880       53       0.39974300      -0.21622200      -0.30718700 
I      15.81169261      12.96541545      29.92831903       53       0.06471400       0.07908300       0.17999900 
I       1.81933263      -0.13915537      18.04765971       53      -0.35628900       0.15442400      -0.31884800 
I       1.48145675       0.00345003      37.84011189       53       0.07573000       0.38488800      -0.06762400 
I       1.10763812      11.45428036      16.88253767       53       0.05010300      -0.23789900       0.21928000 
I       1.66257349      11.91083542      37.85278170       53      -0.29497300       0.09670900       0.19290800 
I       6.62006187       0.14021413      17.81978245       53      -0.35275300       0.29475800      -0.18858400 
I       6.49221061      -0.28153368      37.63827733       53      -0.33622900       0.16426400       0.11829600 
I       5.81969733      12.60791785      17.99253699       53      -0.00607700      -0.52449500      -0.17811500 
I       6.23585271      11.60078273      38.40349346       53       0.00578100      -0.13793100      -0.26807100 
I      11.07139646       0.10336092      18.06322477       53      -0.07745000       0.50579100      -0.37291400 
I      10.55154003       0.04753513      37.47152898       53       0.55723500      -0.09269600       0.45642600 
I      11.76435689      11.85365430      17.91679913       53      -0.54903400      -0.25464600       0.08252800 
I      11.01161563      11.75702649      37.95945163       53      -0.22122000       0.04263800       0.09717700 
I      15.75704899       0.20738551      18.00010591       53       0.07051900      -0.10177500      -0.24464400 
I      16.03194081       0.60831803      37.86668345       53       0.13405900      -0.33603600       0.31778900 
I      16.44851202      11.54291928      18.14474068       53      -0.21022400      -0.32942800      -0.48510800 
I      16.57854820      11.92198502      37.65743760       53      -0.47277600       0.07952700       0.11707900 
I       3.32101047      11.62408262       2.41497566       53       0.40311700      -0.35723900       0.03660000 
I       3.30043265      10.98193003      21.61878753       53       0.16078700       0.28876400       0.03917500 
I       3.61669374      23.61025874       1.61616763       53       0.39896500      -0.25738200       0.30734700 
I       3.42975746      22.69446491      21.32543332       53       0.07217500       0.00611200       0.21941300 
I       8.77588082      11.44338689       2.01492560       53       0.08474900      -0.33159000       0.08319000 
I       7.88984416      10.80417828      22.32281358       53       0.30224000       0.50815000      -0.12666400 
I       8.78993501      23.02792637       1.40005698       53      -0.22797700       0.50510700       0.06448100 
I       8.97111190      22.52681023      21.81796742       53      -0.19432900       0.38507600      -0.10815800 
I      13.76086678      11.68222502       2.07674306       53      -0.62830900      -0.64839300       0.34215700 
I      13.59186403      10.81917093      22.17891713       53      -0.10693000       0.03425200       0.21714500 
I      13.13956888      23.11419787       1.64174680       53       0.02285200       0.49997500       0.11469900 
I      13.50141350      22.78061301      21.77334309       53       0.00032500       0.08419200       0.19518600 
I      18.60141499      11.52078184       2.07275587       53      -0.29584300      -0.45057400       0.30545000 
I      18.81422598      10.79029520      21.85626307       53      -0.28141500      -0.07748700       0.11473900 
I      17.61817810      23.49884982       2.47717368       53       0.58246900      -0.12545100       0.03716200 
I      18.16737068      22.50509070      21.60516370       53       0.18998800       0.39134900       0.27059200 
I       1.30978066       6.61459595      11.70303408       53       0.15102100      -0.30725300      -0.07424900 
I       1.55362740       5.60573115      32.09698097       53       0.05894200       0.54085800       0.03715200 
I       1.52340464      17.50821577      11.89757038       53      -1.03190100       0.93742900       0.56086000 
I       1.31217297      16.86931411      32.54940782       53      -0.27845500       0.26600500      -0.46051100 
I       6.61357971       6.70098981      11.83974219       53      -0.30944800      -0.52449700      -0.10630100 
I       6.09270704       5.65618642      31.51347889       53       0.14631900      -0.09833800       0.25843100 
I       6.47331062      18.01210065      11.88522514       53      -0.13354800      -0.00359400      -0.02483800 
I       6.02312261      17.04894175      31.88021391       53       0.32664600       0.06188400      -0.15015800 
I      11.08423012       5.75405239      12.37973779       53      -0.12243700      -0.15207300      -0.37866800 
I      11.22636888       5.27691743      32.23696904       53      -0.01840200       0.15180000      -0.33000900 
I      11.20572262      18.09722214      12.12891633       53      -0.55723200       0.60843800      -0.32844100 
I      10.47146241      16.96675388      31.77532241       53       0.39051400       0.23853500       0.02719400 
I      16.75460760       5.84549738      11.75902889       53      -0.85853700       0.50066200       0.07980700 
I      16.23788907       5.28952710      32.15958964       53       0.03707000       0.43056800      -0.16801400 
I      16.28889082      17.72918467      11.54116264       53       0.03377400       0.10998900       1.00770200 
I      16.03607836      17.39303536      32.07346954       53      -0.14410800      -0.19704200      -0.15690700 
I       3.82622164       5.74296915       7.74609393       53      -0.13067700       0.19027500      -0.04909800 
I       3.27518843       4.61346217      27.95329431       53       0.10346600       0.09622800      -0.35334500 
I       3.42631365      17.05419198       8.01450982       53       0.22946100       0.54683300      -0.31175500 
I       3.48832295      16.67659460      27.67697768       53       0.15425700       0.39473400       0.17589200 
I       8.73144729       5.49942728       7.57725295       53      -0.11684100       0.13328500       0.12876200 
I       8.31682872       5.00964014      27.37956991       53       0.32839200      -0.37737300       0.05512000 
I       8.57055061      17.37172855       7.94698587       53      -0.15281100      -0.38036700       0.04677300 
I       8.61731008      16.59987887      27.72833408       53      -0.16896000      -0.60303100      -0.25618200 
I      13.39621920       5.34678495       7.73954644       53      -0.01605400       0.15024500       0.46710300 
I      13.56291468       4.74077317      28.37599926       53      -0.54931400      -0.39043900      -0.82156600 
I      13.11034577      17.33079171       7.96437394       53      -0.06084400       0.41075600      -1.16592000 
I      13.45403910      16.58615548      27.87355682       53      -0.02584000       0.01952500       0.35299700 
I      19.00245951       5.79357478       7.42601573       53      -0.58566900      -0.70342800      -0.21247000 
I      18.48362762       4.62777974      28.25383064       53       0.11691000       0.03132700      -0.42727100 
I      18.77320826      17.24577496       7.87971702       53      -0.77923400      -0.45813800      -0.11443500 
I      18.11577785      16.68531975      27.70645070       53       0.33395700       0.11873400       0.31139500 
I       1.17940954       3.52474063       4.21332605       53       0.34208100      -0.10627200       0.24335800 
I       1.88786348       2.63160791      24.08175875       53      -0.18507600       0.29872500       1.18572600 
I       0.57192731      15.30857096       4.17513410       53       0.42746500       0.15448100       0.28136500 
I       1.78493706      14.69042236      24.11309626       53      -0.65827000       0.41699700      -0.62232700 
I       5.94895059       3.59252175       3.86397702       53       0.51086900       0.24653100      -0.19506300 
I       6.02136182       2.33788972      24.25794258       53       0.23131800       0.44612300       0.02634700 
I       6.60136098      14.73624648       4.68792351       53      -0.33658800      -0.24240900      -0.57373100 
I       6.24438498      15.08303520      24.06646952       53      -0.01743900       0.22110200       0.12113900 
I      11.41081225       3.56972998       3.75715985       53      -0.41597600       0.13880900      -0.14759300 
I      11.34373628       2.97188751      24.19603906       53      -0.07920200      -0.02744000       0.06670000 
I      10.77501842      15.66715117       4.07797639       53       0.49370100      -0.64009500      -0.16198500 
I      11.13796639      14.70193698      24.01847397       53       0.18373100       0.03677900      -0.17587200 
I      15.67323202       3.97145994       4.53844708       53       0.21874700      -0.07874700      -0.19797900 
I      16.06224135       2.43001290      24.19455618       53       0.14101400       0.40105400       0.53694500 
I      15.64458131      15.33752342       4.04342009       53      -0.08894300       0.13602200      -0.71396100 
I      16.28792125      14.56694508      23.59684022       53       0.19962900       0.90508400       1.11876400 
I       3.93203917       7.73810089      15.77118716       53      -0.16186900      -0.44272600      -0.91954800 
I       3.90293012       8.60189331      36.07256083       53      -0.36210300       0.14352500      -0.32409900 
I       3.71496931      20.60652766      14.76336868       53      -0.03070900      -0.21395800       0.26788400 
I       3.58745403      19.58782089      36.01827185       53      -0.05363000      -0.41266000      -0.41839700 
I       9.01018113       7.83619292      16.42426952       53       0.36902700      -0.01701200      -1.61831300 
I       7.74968395       8.11030183      35.69402291       53       0.44942700      -0.14989200       0.19397100 
I       8.53047965      20.27441842      15.23968442       53      -0.10698500      -0.03129400       0.10915800 
I       8.68536186      18.98431237      35.50365216       53      -0.18561900      -0.17564500      -0.01406700 
I      13.05023103       8.26675298      16.01594126       53       0.42091900      -0.38756000      -0.34139800 
I      13.68307052       8.83522093      35.72687027       53       0.12691300      -0.07852000       0.18639000 
I      12.65128536      20.45460189      15.70588546       53       0.07459600      -0.03351800      -0.21035100 
I      14.05037069      19.59758509      35.72012576       53      -0.27444200       0.00035500      -0.07111000 
I      17.69022847       7.85399163      15.71809071       53       0.32374700       0.20943000       0.07225900 
I      18.69440508       8.15493757      35.72402065       53      -0.07809100       0.25738900       0.29232800 
I      18.66114915      20.29329145      15.41304456       53      -0.39520900      -0.00164200      -0.20865000 
I      18.35232114      20.11696140      36.06254879       53       0.42607000       0.05466300       0.07816000 
I       0.78145626      10.52743855       6.17816555       53       0.14498500      -0.57160400      -0.08442200 
I       0.82445461       8.49108688      25.39107069       53       0.01875000      -0.43149600       0.29546900 
I       1.13105623      20.88171710       5.91605138       53      -0.04855300      -0.07189600       0.14588900 
I       1.01335181      20.14170269      25.86215383       53      -0.17466900      -0.17321800      -0.15906400 
I       6.73418352       9.12417316       5.58987885       53      -0.08625400       0.14615900       0.35688400 
I       5.71160882       8.94057389      25.60617236       53       0.26391600      -0.43755100       0.21180700 
I       6.17861145      20.35449708       5.51995636       53      -0.19122900       0.52531800       0.17264500 
I       5.87515706      20.77113673      25.37287896       53       0.13502300      -0.30084600       0.48329600 
I      11.92066391       8.85347799       6.05504602       53      -0.72960500       0.36343900       0.57557500 
I      11.27054005       8.76044642      26.44227536       53       0.07614000      -0.73737300       0.09774200 
I      11.11431289      20.43132274       5.80306729       53      -0.29605900       0.24679600       0.04684800 
I      10.92113918      19.94984802      25.63458456       53      -0.08372300      -0.14550800       0.01672600 
I      16.42232726       9.52567499       6.14993275       53      -0.61815300      -0.71506400      -0.27153800 
I      16.23409787       8.25097949      26.07125451       53       0.08397500       0.07939400      -0.37971300 
I      15.74004460      20.84113595       6.01658446       53      -0.23205600      -0.02948400       0.07306300 
I      15.67549470      20.41812095      25.96088464       53       0.08630000      -0.08038100       0.05738800 
I       3.46991760       2.89267369      13.79384376       53       0.29184000       0.07011300      -0.26730100 
I       3.58670429       2.42897384      34.45542985       53      -0.03651700      -0.60962400      -0.60078900 
I       3.34828407      14.07175009      13.72183488       53       0.47647500      -0.10300000       0.15335900 
I       3.71843282      13.60056740      33.92341380       53       0.27054700      -0.36861500       0.86939900 
I       8.44739686       1.98669903      13.34359665       53       0.02852100       0.15508000       0.35657300 
I       8.57705143       1.72304702      33.91255766       53      -0.19873200      -0.02282600       0.44933100 
I       8.32462576      13.82506514      13.74906596       53       0.19013400      -0.02314200       0.02594000 
I       8.81903265      13.49544880      33.74823272       53       0.34684700       0.18255600       0.07630600 
I      13.58303415       2.25472605      13.87876408       53       0.11295400      -0.10009600      -0.02854400 
I      14.35621842       2.30923383      34.24915080       53      -0.65655800      -0.49999900       0.00925400 
I      13.00238480      14.58672650      13.67995439       53       0.39844100      -0.11661200       0.49510200 
I      13.92132275      13.96651224      34.01648062       53       0.15572700      -0.61037800       0.33427300 
I      18.42833380       2.58210044      13.67283449       53       0.09483000      -0.42198700      -0.44231000 
I      18.28957248       1.74182464      34.26161633       53       0.64524500       0.02142900      -0.29501700 
I      18.72281417      13.55104645      13.85579499       53      -0.11179900       0.09287800       0.26433400 
I      19.01407161      13.12946663      33.74324692       53       0.38955200       0.07162500       1.03454200 
H       5.38979160       0.89916275       6.44419950        1      -1.11247200      -0.21001700      -1.01928700 
H       2.80683565      -0.85126882      27.78543328        1       0.68765000      -1.69304100       1.77631800 
H       3.37388605      11.25445961       6.41908386        1      -0.53270800       1.39194000      -0.48441600 
H       2.53056257      11.87137939      27.09728131        1      -0.60574400      -0.15081400       0.92168300 
H       8.08193007       0.09707371       6.14220932        1       0.19384100       0.78148400      -0.45747300 
H       9.70058852      -0.48637444      27.50100642        1       0.76020800      -0.41712900       0.30143500 
H       9.70075133      11.57893150       6.43946569        1       2.32300600       1.11136700      -0.62755100 
H      10.06411202      11.43978961      25.25744864        1      -0.35043400       0.35888400       0.75547400 
H      13.98883011       1.15519503       5.50029316        1       2.23675000       0.49538400      -1.63088300 
H      13.41733003       0.00061804      27.87718314        1      -0.76770400      -2.56843100       6.09328700 
H      13.97075141      12.33882688       5.23140544        1      -1.49628700      -0.09861300       0.92867300 
H      14.53394736      10.51803315      25.79684902        1      -0.75098300       0.77040900       1.36025600 
H      19.19106221       0.65146882       7.47348138        1       1.43691300      -0.28015900       2.22995800 
H      19.29285003       0.41457710      28.37309364        1       0.13782500       0.44991200       0.81593800 
H      18.19791076      14.47828023       6.73605320        1       2.74643400       3.36960600       1.81569400 
H      19.70933725      12.88708514      26.36669823        1       1.02012000       1.16048400       0.01699400 
H       2.38258976      10.56085210      12.19641954        1      -0.06092100       0.01437400      -0.09041800 
H       0.51773581      10.76379312      32.53767336        1       0.32009200      -1.53011000      -0.04635300 
H       0.88243005      22.04149870      11.46551395        1       0.00005800       0.46357500      -0.09194700 
H       2.66226310      20.89286256      32.68148996        1      -1.98947900       0.14015800      -0.62131600 
H       5.36160650      10.51499169      14.92661827        1       2.72586200      -0.44987300      -2.27123700 
H       7.09149758       9.84150884      33.13331639        1      -0.49550200      -0.46007500       0.07055100 
H       6.46124433      22.20780738      13.66569489        1      -1.37610400       0.35015800      -0.18718900 
H       6.56602383      21.36963457      34.23909625        1      -1.04845600      -0.06259600      -1.48969200 
H      10.02726192       9.24043100      12.63923462        1       2.13533600       0.69199300       0.55368200 
H      10.05020405       9.98520618      34.07972185        1      -1.06966800      -0.81729000       1.63449800 
H      10.28883375      21.40483380      12.61547743        1       0.98056300       0.34096100      -0.77608800 
H      10.14793832      21.28453486      33.18183977        1       2.14615800       0.36053600       1.01624700 
H      14.94754451       9.69646135      13.10633162        1       0.59574000       0.01001600      -0.14136700 
H      17.46832110      10.76231749      32.17256329        1      -1.00169500      -1.55372300       0.98655900 
H      15.55218956      22.95254419      12.31202304        1       0.24110000      -0.16037600       1.53398400 
H      17.07700034      20.59063077      33.31727550        1       0.47563700       0.65146200       0.48959300 
H       3.57434142       6.67269687       4.12862868        1       0.99327000       1.34486400      -0.48227800 
H       3.01671406       6.71824930      22.05969872        1       0.60909100      -0.41728600       1.44529000 
H       3.67584304      18.46478674       4.62224953        1      -0.19825300      -0.07721500      -0.75836300 
H       4.25346544      18.62680647      21.77686363        1      -1.28373200       0.45654000       2.17347500 
H       8.09596766       7.28225720       1.75844224        1      -0.14745000       0.25310200      -0.28789400 
H       7.67035296       6.69149938      22.01405815        1       1.04468300      -0.51931100       0.73293600 
H       9.87707827      18.59709183       3.09518125        1       0.43493500       0.34030900       0.23084100 
H       8.38244774      19.47609155      22.13394022        1      -1.10981200      -0.91442400       0.19838300 
H      13.38083250       8.67861942       3.24901818        1       0.14179300      -1.35526600       0.10136700 
H      13.17013696       7.95381231      23.70356199        1      -0.19149600      -1.54127900       0.08027100 
H      12.97127853      20.27209663       3.65853171        1      -1.07319100      -0.19162400      -0.40305600 
H      14.94446987      19.07037544      22.91470793        1      -0.44994700      -0.47524400       1.00126200 
H      19.17231259       7.71313561       2.49182102        1       0.49254800       0.76086500      -1.43749500 
H      19.35787175       6.67140894      22.29558768        1       0.96483500      -2.25295200       0.59771700 
H      18.81996462      19.81460517       2.76008447        1       1.85106900       0.01267400      -1.01112200 
H      18.93773852      19.58249497      23.12824376        1      -0.30291100      -0.37989400      -0.79389900 
H      -0.67047665       5.13301684      15.74179191        1       0.82852000       0.71357900       0.37061400 
H       0.03444534       5.33807848      37.57765656        1       0.47447700      -0.35960500      -0.49710500 
H       1.98172360      16.03633346      15.28544839        1      -0.21040100      -0.26520700      -1.20714400 
H       1.98073847      16.05216087      35.47344080        1      -0.48436300      -0.16423800       0.96383000 
H       7.82719194       4.05976703      17.16646159        1      -0.31872900      -0.27781500      -0.13587600 
H       6.48681209       4.88186769      37.27728718        1      -0.31183400      -1.24017100      -0.57121300 
H       6.21146192      17.54529505      15.58783158        1      -0.62556100      -1.75282300       0.70487300 
H       6.69769637      15.47905763      35.55636494        1      -1.23397400      -0.08201900       1.31846400 
H      10.26415052       4.57928333      17.79098657        1       0.37328200       0.36035000       1.71172300 
H      11.92499952       4.67444485      36.30261056        1      -0.05468500      -0.60777800      -1.14019600 
H      11.31398223      16.30869298      17.38384565        1      -0.00287800      -0.22379100      -0.32150900 
H      10.81364486      14.56067861      35.91781758        1      -0.16328500      -1.30761300       0.17295800 
H      16.72096280       4.52893694      15.40585414        1      -0.01171200       0.63218800       0.69587400 
H      15.28720814       4.17917313      37.43420912        1      -0.02450600      -0.17823100       0.38416900 
H      16.34048366      17.24265676      16.65692518        1      -0.32624200      -0.70221600       0.04767700 
H      16.68943137      16.99736240      34.89007872        1      -0.21668400       0.41430400       0.37811000 
H       4.36492932       1.14584044       4.73353816        1       0.49596200       0.89804300       1.50243500 
H       2.15490953      -0.74147344      26.13989528        1      -0.38321400      -0.71594100      -1.02797200 
H       4.39608744      12.13411574       7.69711636        1       0.34510600      -0.26633300      -2.64096300 
H       3.86877928      10.74027753      26.61530263        1      -0.17452000       0.16779000      -0.35601100 