768
Lattice="19.6251213118 0.00496423533914 0.233403455955 -0.00915384500606 21.8386900253 0.0927370602123 0.461105224892 0.16192590187 39.4380737763" Properties=species:S:1:pos:R:3:Z:I:1:forces:R:3 energy=-99809.3571042 stress="-1777.069234 805.072818 -1171.973152 805.072818 3075.993775 -2836.6091 -1171.973152 -2836.6091 -638.991693" pbc="T T T"
I       3.65074649       4.29957135      19.79660696       53       0.10055900      -0.23991200       0.01350400 
I       4.00997488       4.97392871      39.73150419       53       0.01664500      -0.37624300      -0.55534800 
I       3.73971190      14.80841650      19.91786652       53       0.33432200       0.23598900      -0.36802100 
I       4.06003016      15.37631357      39.47189608       53       0.37952500       0.02696100       0.09171900 
I       8.78880743       3.86696049      20.09739682       53       0.05351200       0.10110300       0.62744600 
I       9.36589753       4.40385847      40.15966522       53      -0.14109800       0.11645000      -0.30273700 
I       8.78599225      14.48324049      19.86191564       53      -0.44650500       0.26181500       0.00149200 
I       9.01489766      15.10270292      39.14197487       53      -0.06346700       0.02867900       0.45232000 
I      13.45449139       3.75004326      20.23975714       53       0.00482400       0.18043600      -0.04935200 
I      14.21566610       4.49165541      39.79451914       53      -0.32946400      -0.24040100       0.04461500 
I      13.36158554      14.77737420      19.87044054       53       0.19013300      -0.20364000       0.34583600 
I      13.58108391      15.40520781      39.25011201       53       0.58695300      -0.38572300       0.71981200 
I      18.40325129       4.07881308      20.27410190       53       0.01551800       0.19394100      -0.09787000 
I      18.44627366       4.46991264      39.47584255       53      -0.35464900       0.06698200      -0.08973400 
I      18.39959819      14.65700380      19.52355593       53       0.15175200       0.45503100       0.01981300 
I      18.56539320      15.60133479      39.50184325       53       0.04141400      -0.23859200      -0.41847200 
I       0.99196192       8.14923589      -0.19130140       53       0.22008500      -0.42319700      -0.20235200 
I       1.22496953       7.56383288      20.33884593       53       0.25252700       0.04045100      -0.31160000 
I       1.43913293      18.57504940       0.22618266       53      -0.30643700       0.60419400       0.05145400 
I       1.41051699      18.92062991      19.75174799       53       0.14206700      -0.30271400       0.18796000 
I       5.79330785       7.91969652      -0.23907199       53       0.30196400      -0.42362200       0.35178500 
I       6.63330048       7.50854912      19.55720141       53      -0.67618600      -0.25955100       0.20156800 
I       5.95387339      18.59697000       0.42766671       53       0.13415900       0.62812400      -0.05307400 
I       6.64006213      18.48506322      19.99464488       53       0.45177700      -0.52289500       0.10940900 
I      10.65321588       8.25316533       0.11559605       53      -0.32117200      -0.48405100       0.18038000 
I      11.44036316       7.67053430      19.53886056       53       1.00415500      -0.72183900       0.56347900 
I      10.71347794      18.91101088       0.29931295       53      -0.07323700      -0.15789500       0.18032400 
I      11.02153984      18.84754885      20.63237380       53       0.30570600      -0.11751600      -0.54731600 
I      16.18863568       8.14760927       0.01415224       53      -0.25620700      -0.34308100       0.12578900 
I      15.92643544       7.55391646      19.16087036       53      -0.17939300       0.10461700       0.41350100 
I      16.03101995      19.14125656       0.63675034       53      -0.05420200      -0.28584900      -0.30763500 
I      16.10947717      18.56009541      19.32402703       53       0.05289000      -0.14633500       0.49675300 
I       3.19306228       8.81220896      10.15128859       53      -0.30369800       0.21987900      -0.68659600 
I       4.60095700       8.77410059      29.75771942       53      -0.24811500      -0.27506400      -0.17113000 
I       3.73528518      20.25094953       9.82496321       53       0.23645100      -0.21300100      -0.20861000 
I       4.53556995      19.57522276      29.24941729       53      -0.09312600      -0.19258800      -0.17845100 
I       8.44450390       9.19909681      10.17918516       53      -0.01047900      -0.51351100       0.58640600 
I       9.05361286       9.12747458      29.12221491       53       0.16052600      -0.44711300       0.27048100 
I       8.58410431      19.99129420       9.59095090       53       0.03752900       0.32518800       0.33945100 
I       8.95558404      19.41255438      29.49372277       53       0.40080700       0.87195200       0.48222600 
I      13.36817538       8.61469248      10.77268305       53       0.31950700      -0.14625800      -0.44500700 
I      14.22077803       8.79225657      29.86754245       53      -0.13630300      -0.38737600      -0.20715400 
I      13.85372602      19.25641155      10.39928133       53      -0.07978700       0.66177800       0.12533300 
I      14.19646121      19.61750969      29.20389522       53      -0.58987600       0.06673100      -0.21581600 
I      18.53618751       9.28405948      10.75876290       53      -0.00214200      -0.30137100      -0.56811000 
I      19.13932854       8.28065198      29.43689076       53       0.01523200       0.56816400       0.41699900 
I      18.24105412      19.77855346      10.45812274       53       0.39535400      -0.16518100      -0.60067800 
I      19.21938324      19.50355733      29.71050443       53      -0.52713900       0.02909400       0.24056500 
I       1.62691184       1.70368719      10.12678289       53      -0.28680200       0.24052200       0.35767800 
I       1.46346582       1.42719204      29.36675047       53       0.38158500       0.06600900       0.47104100 
I       1.92805535      12.54620410      10.09583504       53      -0.54095300      -0.29445000      -0.18958900 
I       1.79887773      12.04361371      29.44148226       53      -0.21231000       0.37813600      -0.19362800 
I       6.00655698       1.63584967       9.73693820       53       0.02793900       0.02650600       0.18335400 
I       6.54181829       0.92921222      30.08347413       53       0.26101700       0.72268800      -0.23712000 
I       6.07534293      12.68688256       9.70317517       53       0.22683900      -0.05621600      -0.04745100 
I       6.33379865      12.10312023      28.94294081       53       0.23254700       0.31775400       0.26699100 
I      11.17935651       1.73443109      10.24740547       53      -0.18492200      -0.00088500      -0.07448400 
I      11.34263775       1.07251797      30.83836342       53       0.05074700      -0.00531000      -0.33144700 
I      11.08044857      12.28146799       9.96803285       53       0.13594100       0.00014900       0.01197200 
I      11.84502219      11.95941059      29.79786834       53      -0.39242200      -0.02254000      -0.34005500 
I      15.44796795       1.60655255      10.28376063       53       0.58175700       0.20178500       0.22730600 
I      16.69627370       1.13909559      29.50182168       53      -0.18310900       0.12551900       0.42423300 
I      16.33028970      13.27793199       9.16872566       53       0.13958700      -0.45202700       0.03812800 
I      16.47924790      12.36049187      30.06517548       53      -0.14028700       0.02570600      -0.37992400 
I       1.50617271       1.03000398      17.78955787       53      -0.07864900      -0.13142300       0.42806200 
I       1.68894117       1.20525525      37.07771701       53      -0.06394000      -0.26867800       0.51328100 
I       1.42509623      11.18529732      17.72025550       53       0.19652100       0.27918200      -0.00437800 
I       1.88314716      12.15541801      37.09410572       53      -0.24100400      -0.04097500      -0.19518600 
I       6.60532855       0.76937409      17.89102278       53      -0.10799100      -0.17564300       0.06740700 
I       6.20842181       1.39971543      37.74135721       53       0.24852600       0.12131500       0.00022700 
I       5.98303890      11.28568418      17.60656436       53       0.07658400       0.10693800      -0.20175100 
I       6.21193325      12.43855525      37.44662370       53       0.17018400      -0.50950800       0.05052100 
I      11.59945681       0.82662003      17.83497645       53      -0.49391200      -0.26981000       0.00432200 
I      11.63308822       0.91883164      37.73944125       53      -0.15454800       0.34136700      -0.06077000 
I      10.71097623      11.56960408      17.83321220       53       0.51367400      -0.07537300      -0.30454200 
I      11.40354885      12.09625610      37.16455145       53       0.26189600      -0.42950500       0.50638400 
I      16.12772458       0.50204585      17.91996726       53      -0.63092300       0.59884500       0.09472300 
I      16.18105017       0.97949558      37.51357205       53       0.01246400      -0.40642400       0.03141800 
I      16.73364060      11.56481366      17.94277702       53      -0.65637900      -0.14917800      -0.21781900 
I      15.91089671      11.48373919      37.04158389       53       0.30970500       0.50486600      -0.03631300 
I       3.41397326      11.25054169       1.81459429       53       0.12000400       0.06696300      -0.38711000 
I       3.42858867      10.94693565      21.70479432       53       0.28386600      -0.30629900      -0.23032000 
I       3.05390495      22.44988877       2.19202588       53       0.19908800       0.11809500       0.11098900 
I       3.62128058      22.13002061      22.36203356       53       0.23078000      -0.14536500      -0.28853300 
I       8.45679644      10.99922339       2.24992689       53      -0.09102300       0.22960700      -0.19899300 
I       8.38645922      10.51893236      21.64136946       53      -0.16398200      -0.24538300       0.20890300 
I       8.82438696      22.40449329       2.72246563       53      -0.26148800      -0.25560800      -0.40289500 
I       8.33485569      21.56850843      21.69828887       53       0.04455500       0.31059200       0.34913900 
I      13.23103248      11.04704522       2.16928343       53       0.35096700       0.00621400      -0.18078000 
I      13.47343606      10.74007945      22.06519620       53       0.32669000      -0.15888200      -0.34751500 
I      13.52708617      21.47763610       2.48266322       53      -0.17758500       0.69180000      -0.26930900 
I      13.64419631      21.67592319      21.85728908       53       0.18640400       0.17232500       0.74664700 
I      18.57812982      10.99553713       1.58636405       53      -0.44656600       0.52793000       0.16266600 
I      18.27308705      11.13046969      21.88277838       53       0.13309600      -0.15413700       0.25780800 
I      18.52600585      22.32973438       1.80924124       53       0.26614600      -0.48545600       0.04068500 
I      18.65437167      22.19045347      22.20075569       53      -0.02810000      -0.31712600      -0.06009900 
I       1.49869471       5.39206281      11.95096606       53      -0.30664300       0.07962700       0.17964400 
I       1.72072694       5.46434613      31.75212734       53       0.06336800      -0.19353000      -0.01366400 
I       1.69448713      16.81488587      11.45891600       53      -0.35060100      -0.14317700       0.27490600 
I       1.83351988      16.32744739      31.48419527       53       0.04175700      -0.13906100       0.25216500 
I       6.11454241       5.77446667      12.41395712       53       0.07452000       0.12432600      -0.19475200 
I       6.67992069       5.13867381      32.09991317       53      -0.22838600       0.22128000      -0.76260900 
I       6.47474334      16.82385083      11.42775515       53       0.06665800      -0.44882700       0.58665000 
I       6.76136589      16.25478730      31.22514075       53       0.05284500      -0.26977500       0.06557200 
I      10.81667998       5.38816356      12.65607335       53      -0.08888600       0.13506600      -0.46323100 
I      11.80211235       5.29123186      31.66163077       53      -0.71885100       0.39208100       0.49906700 
I      11.33465740      16.13363625      11.88838817       53      -0.27677300       0.28039800       0.02262800 
I      11.20644731      16.22611812      31.61645833       53       0.06917200      -0.00166400      -0.25372100 
I      16.50555905       5.68955624      12.49651553       53      -0.12009500      -0.00934300      -0.12745600 
I      16.39391550       5.08988244      31.81843469       53      -0.13268700       0.33813500       0.15794000 
I      16.15191983      16.37761521      12.14681072       53      -0.05788600      -0.32323000      -0.13303300 
I      16.47662864      16.57442438      31.07484328       53      -0.03210000      -0.30771900       0.34857400 
I       3.81172195       5.21482122       7.81615087       53      -0.30154800      -0.35025100       0.34771400 
I       4.37811799       4.56695786      27.64428740       53       0.15804800       0.10328000       0.29956400 
I       3.72050600      16.02598739       8.02118855       53       0.16723900      -0.20349400      -0.23050900 
I       4.38124161      15.32348631      27.18429639       53      -0.04732900       0.39061000       0.29045700 
I       8.14909422       5.20872770       8.23891965       53       0.27619700       0.08538600       0.11964000 
I       9.25638394       4.64528648      27.89814258       53       0.11146000      -0.06201100      -0.04842000 
I       8.52525586      16.13509407       7.74165820       53       0.42376400      -0.49250600       0.22317300 
I       9.43804421      15.33518808      27.46523333       53      -0.00757100       0.05276800       0.37814800 
I      13.61789420       4.86837365       8.37696880       53      -0.15640900       0.52501100      -0.40947100 
I      14.16773877       4.79662383      27.74085941       53      -0.35929100       0.00535500      -0.07260400 
I      13.56057491      16.00673930       8.04735503       53      -0.32436200      -0.18440500       0.05253300 
I      13.71706638      15.71787325      27.23553019       53       0.34734200      -0.07545900       0.03040600 
I      18.12232440       4.65623573       8.20453672       53       0.10572000       0.78892500       0.54372000 
I      18.82513293       4.48661582      27.98342676       53      -0.04918300       0.07477400       0.13837000 
I      19.24073015      15.86491951       7.82797722       53      -0.27055000       0.08589400       0.27429500 
I      19.04924489      15.58585935      27.49211716       53      -0.09740300      -0.09786900       0.35004500 
I       0.64533050       3.84301341       3.60979582       53       0.07662800      -0.03680900      -0.01788500 
I       2.18215166       3.64086725      24.39216268       53      -0.29187800      -0.23474200      -0.53887200 
I       0.80785420      13.95472576       3.69006251       53      -0.08502100       0.14336100       0.17807300 
I       1.56695018      14.44945034      23.48783694       53      -0.21836600      -0.18760400      -0.17740300 
I       5.73744237       3.47639443       4.20028564       53      -0.14839200      -0.00306800      -0.38897000 
I       7.14051251       3.16819489      23.98264491       53      -0.48454200      -0.00972400      -0.01339200 
I       6.24131377      14.92774401       3.88044260       53       0.21499200      -0.03081900       0.23021200 
I       6.43565338      14.00840601      23.50261008       53       0.02961700       0.43476400      -0.17297800 
I      10.85436939       3.77216882       4.38110095       53       0.54422400      -0.21953200      -0.25795600 
I      11.12283295       3.02862060      24.11323213       53       0.33857300      -0.16140700       0.14988400 
I      11.32081059      14.14838720       4.05636300       53      -0.26763000       0.60133900       0.00369000 
I      11.40391758      13.88569063      23.78526607       53      -0.48027600      -0.38274400       0.01816200 
I      15.97127431       3.39536517       4.04515353       53      -0.07523800       0.07013800      -0.12320800 
I      16.48580961       3.31726763      24.15054879       53      -0.17398700       0.05862000      -0.01510300 
I      15.84794707      14.78180594       3.46053219       53      -0.48661900      -0.44815000      -0.02490300 
I      15.78289459      14.31963875      23.53091456       53       0.15675100       0.33432500       0.53537700 
I       3.54652166       7.73166744      15.65656731       53      -0.02068400       0.11046500       0.44977500 
I       4.04311901       7.87865944      35.46131135       53       0.07297800       0.50833200       0.04885000 
I       4.09285982      18.90741204      16.47211451       53      -0.23160400       0.12224900      -0.49797100 
I       3.89650879      19.74101978      35.80452176       53      -0.19731300      -0.07619900       0.39456900 
I       8.87419409       7.46444569      15.65074204       53      -0.07041100       0.09778100       0.01468600 
I       9.49347265       8.57806705      35.45782704       53      -0.65717000      -0.08357500       0.44829400 
I       9.04701197      18.63073604      16.04728910       53      -0.08868000       0.30271300      -0.01659000 
I       8.85200925      19.36370775      36.27111568       53       0.09278000       0.20633800      -0.18609500 
I      13.51540449       8.43328841      15.85371708       53      -0.34072600      -0.44207300       0.00788600 
I      13.76143605       8.16758778      35.75207428       53      -0.10431900      -0.05905700      -0.26652700 
I      13.42993244      18.85583463      15.94031239       53       0.28133300      -0.35672700       0.40925800 
I      14.09443166      18.78223816      35.98423894       53      -0.13991500      -0.02783800      -0.01104800 
I      18.68051202       8.64218315      16.16210550       53      -0.18224000      -0.78374900      -0.29690600 
I      18.96405918       8.13179525      35.37575590       53      -0.27053100      -0.22579900       0.14168100 
I      18.58386868      19.18231473      16.27181500       53       0.44286300      -0.05456600       0.13461800 
I      18.53493263      18.94190046      35.33994127       53      -0.08983400       0.75526600       0.22222000 
I       1.58415270       8.17032660       6.10694485       53      -0.34687600       0.52207600       0.52536300 
I       2.11285833       8.46529723      25.74414369       53       0.07917100      -0.05786900       0.14426600 
I       1.00232342      19.47301939       5.47166840       53      -0.16292500       0.29365000       0.12072900 
I       1.23460262      18.59564681      25.64291890       53       0.26767700       0.53198500      -0.48808500 
I       6.18687697       8.73498752       6.16203369       53      -0.04554600      -0.45504200       0.29297600 
I       6.90916166       7.71794722      25.65907854       53      -0.21283100       0.76906200      -0.34021400 
I       5.56230363      20.18082732       5.72279984       53       0.15780700      -0.22701800       0.09967900 
I       6.31860051      18.97271369      25.51659162       53       0.49480900       0.52023500      -1.01567600 
I      11.14491229       8.62437881       6.84646320       53       0.03096100      -0.15974000      -0.22766600 
I      11.94080350       8.20634016      26.14665064       53       0.13037300       0.36880900      -0.99083800 
I      11.14868495      19.93557541       6.35176373       53       0.18842500       0.02775900       0.35737400 
I      11.49944671      18.93005502      25.61887335       53      -0.46052200       0.35593400       0.23634900 
I      15.90324087       8.73973977       6.68364612       53      -0.00654100       0.08526900       0.04622000 
I      16.57872551       8.08180929      25.89688259       53       0.13073300       0.28686600       0.23308600 
I      16.11829746      19.64653755       6.51839666       53      -0.13127800       0.03626600      -0.08712600 
I      16.85323939      19.70629626      25.61959071       53      -0.09638300      -0.05520600      -0.05354400 
I       3.91015366       2.25289277      14.87122045       53       0.05230600       0.06964500      -0.18379400 
I       3.80330555       2.44801806      33.93540126       53      -0.06622400      -0.47208500      -0.57044700 
I       2.95305391      13.36868476      14.22124119       53       0.23569400      -0.18411000      -0.03277200 
I       3.93975119      13.06662898      33.67253691       53       0.21622200      -0.16584600       0.18084800 
I       8.22412139       2.63017566      14.23099284       53      -0.30907500      -0.69363800      -0.16477300 
I       8.87064749       2.37222029      34.09485961       53       0.59102000       0.18797900       0.06378000 
I       8.09167748      13.00262038      13.66087739       53       0.04418500      -0.05196400      -0.09042000 
I       9.31910753      13.03327285      33.83456127       53      -0.13518900      -0.01274100      -0.40215700 
I      13.57098363       2.00767803      13.92809511       53      -0.21086400      -0.17699900       0.07120000 
I      14.08752634       2.09489727      33.81745420       53       0.01638400      -0.04902300      -0.14420500 
I      13.55073285      13.50967568      14.16909311       53       0.20184000      -0.36549600      -0.07842500 
I      13.79844025      13.07717132      33.19815152       53       0.02757000       0.10407600       0.33204800 
I      18.00961184       2.09613908      14.72449570       53       0.90766700      -0.11463200      -0.64486500 
I      18.54487115       1.97780521      34.18789205       53       0.11379600      -0.32321400       0.30537800 
I      18.35863145      13.17577584      14.18385320       53      -0.15527700       0.00432700      -0.21126200 
I      19.25523102      12.99780987      33.50421306       53      -0.17679300       0.04871100       0.27707700 
H       1.58439283       1.10493068       5.46194288        1       0.96686700      -0.46827700       0.52558300 
H       3.45244132       1.29081472      25.46438225        1       0.21767300       0.73381400       0.90393600 
H       3.19353750      11.22495493       5.14902727        1       0.70338000       0.96220800      -0.42182300 
H       5.82330928      10.57521781      25.62190354        1       0.32460800      -1.41778100       1.19422500 
H       6.87769136       2.12214882       6.45950803        1       1.45494200       0.36251200      -0.25347400 
H       9.37825236       1.10868023      27.20211077        1       0.19063500       1.26033900       0.79703000 
H       8.47429032      12.99387746       6.50323771        1      -0.89292200      -1.10153000      -0.08100700 
H       9.54131357      10.52682531      24.77183977        1       0.12809400      -0.55053300      -1.79556200 
H      13.01349830       0.09638413       5.62223011        1       2.11826700       1.51044500       0.57946200 
H      12.81411005       0.42305212      27.00882006        1       2.59350500       1.49296500      -0.12366100 
H      12.45801433      12.59630862       5.84105132        1       1.85330300      -0.63687100       1.26031900 
H      14.68084841      10.88636414      24.91849721        1       0.82946600       0.24397600       0.90713200 
H      19.20239271       0.88555287       7.93281391        1       0.37007500       0.77056600      -1.42610800 
H      20.41759151       1.00418715      25.73500190        1       0.79682800      -0.19488700       1.12333500 
H      19.92956729      11.98571672       6.61067056        1       0.73272300       1.63470600      -0.10114900 
H      19.57509416      12.60793604      26.24642765        1      -1.12660100       1.25275300       0.34959200 
H       0.65937825       8.33204252      13.23826332        1       1.73787100       0.92641700      -0.64085900 
H       2.84570747       9.18512642      32.22249090        1      -0.35350900      -0.84288300       0.73155500 
H       0.91233623      20.67394036      12.41632520        1      -0.94611200       0.23638800      -0.08192900 
H       2.29285984      19.64828172      33.55219966        1      -1.09597600       0.41675500      -1.24730200 
H       4.95559892       8.83812326      12.11237253        1      -0.05225000       0.23852200       0.81181300 
H       7.23093775      10.90091827      32.21591110        1       0.84233800       2.01307500      -0.65402400 
H       6.46267184      19.16614304      13.12165352        1      -0.84535100      -0.21010300      -0.63439700 
H       5.20165761      20.76164587      33.69717724        1       1.69818000       0.40442200      -0.74071400 
H      12.03261523      10.25463732      14.49565058        1      -1.91024200       0.90740100      -2.19655800 
H      12.15119022       8.13216197      32.84439776        1       0.96580600      -1.48921000       1.01157900 
H      10.44768689      19.61793066      13.25922342        1       1.11425000       0.88159800      -0.14757600 
H      12.51105559      19.36160792      33.00082392        1       0.49685000       0.00816300       0.40446100 
H      15.38224533       9.19358300      12.71678049        1       0.03951000       0.28647900       1.29976600 
H      16.19393850       9.75438988      31.63826842        1      -0.16517100      -0.02853700      -1.04117400 
H      16.81192300      19.81596155      12.77436000        1      -0.16115600       2.46566400       1.19795000 
H      16.04733833      19.31506508      32.34215901        1      -1.49082400       1.22090200       0.02471000 
H       3.97836191       7.81271780       3.38310076        1       0.84399600       1.87675200      -0.61425100 
H       3.47215961       7.38593823      22.39748348        1       0.06964600      -1.80910900      -0.15555600 
H       3.11803210      16.47814775       4.72169512        1       0.17963800       0.65933400      -2.22662700 
H       3.70745391      16.63928195      22.01009329        1       0.02570900       0.51307700      -0.67042200 
H       8.32367234       6.85538897       2.74854771        1       0.32434800      -0.10638700       1.00307600 
H       9.63166748       6.42481365      22.38629210        1      -0.44871800      -0.86981300      -1.24968000 
H       8.86407171      16.99164520       5.37373100        1       0.87222400       1.67381900      -1.73606700 
H       8.14592137      18.01412899      23.08340899        1       1.47074900      -0.44625400       0.58531300 
H      12.83156776       6.61281761       2.88613770        1       0.69389200       1.86859300      -0.04854800 
H      13.33014136       7.19277814      22.54441119        1       0.05081100       0.73692900      -0.06512400 
H      14.04012145      18.24567475       2.67851894        1      -0.58029600       0.26554700       1.54713100 
H      15.19299654      17.39259487      23.96111815        1      -0.17613100       0.02586200      -1.01541300 
H      19.36489632       6.57745208       4.43192483        1      -0.98183700       1.25472700       0.28021300 
H      20.52996045       5.82933649      23.33390244        1      -0.82184900       1.04590700      -0.52621600 
H      17.79951648      18.67124867       3.30577484        1       0.76904300      -0.53402100      -0.30894200 
H      17.53126693      18.58248822      22.80754881        1       0.40492500      -0.89505800      -0.42364500 
H       0.21621400       4.49088781      15.69460032        1      -0.95528500      -0.22764900      -1.21055100 
H       1.52300952       5.44237128      34.80131320        1       0.01133500      -0.60724400       2.09651500 
H       1.42705942      17.16796146      17.14840090        1      -0.06430900      -0.73449900       0.56010100 
H       1.13127800      15.18667797      35.61985040        1       0.04874100      -0.90770300       0.12850700 
H       7.40528579       5.05093414      18.08961932        1      -0.34752300       1.08584800      -0.45332000 
H       6.87182591       4.27530276      34.86550565        1      -2.00180700      -0.44483400       2.14392300 
H       6.12093432      16.77938270      15.02156013        1      -0.29313200       0.41874900       0.42278500 
H       6.99331052      16.70732443      34.69629264        1      -0.03250900      -0.72893000       1.95797100 
H      11.56165588       4.10496348      15.93498646        1       1.05192000       0.55323100      -0.13416500 
H      12.54133230       4.67983117      36.74568392        1       0.83145900      -0.09117900       1.10495600 
H      10.35700144      15.33377145      15.99454422        1      -0.23572800       0.95936400       0.19374800 
H      12.54248670      15.66886085      37.09384450        1      -2.76244100       1.31635000      -1.06525400 
H      15.94018881       4.99705495      17.61384443        1       1.31748200      -0.11121700       0.02196300 
H      16.48513646       4.12998157      35.23620573        1       0.51400100       0.87159500      -0.17654700 
H      15.22767586      16.38444819      16.02628378        1       2.02895000       0.37904900       0.09517400 
H      15.58846053      14.41525931      36.55124886        1       0.58785200       1.04046800      -1.37405600 
H       1.93671489       2.29120710       6.64324804        1      -0.07105000       2.51447900       0.94019100 
H       4.99869664       0.72576096      26.39116611        1      -1.71106400       1.20931200       0.56819100 
H       4.10744509      11.39057613       6.42854913        1       0.29058000       0.25414900       3.51332400 
H       5.70702601      11.83603111      24.53532475        1       0.76398900       0.68623400      -0.41340100 