768
Lattice="18.8458791203 0.0311027039524 -0.112909601534 0.037847703252 21.7400251457 -0.122321023209 -0.22118459029 -0.199226567709 37.9562361551" Properties=species:S:1:pos:R:3:Z:I:1:forces:R:3 energy=-99828.8863093 stress="1144.98379 -163.837553 244.464647 -163.837553 138.155772 -2328.012443 244.464647 -2328.012443 138.352926" pbc="T T T"
I       3.52779840       3.87199146      18.84913688       53      -0.01864100      -0.19287000       0.35256800 
I       3.37892593       3.77630328      38.19471670       53      -0.07623800       0.44830400      -0.01280700 
I       3.70834923      14.68426653      19.18273094       53      -0.30012600       0.12014900      -0.15890700 
I       3.20955761      14.46134028      37.25279196       53       0.35986800      -0.09261200       0.41797800 
I       7.70387676       4.04501472      18.72611272       53       0.15852500      -0.39778100       0.19739700 
I       7.61505616       4.21184509      38.17977139       53       1.02179700       0.42050500      -0.53604700 
I       8.04430113      15.04837195      18.80626034       53       0.17697500      -0.12519100      -0.39323600 
I       8.06596103      14.64769467      37.94531647       53      -0.10060900       0.05147500       0.01315500 
I      12.85974128       3.75601141      18.63995266       53       0.06071400      -0.15005300       0.25819000 
I      12.69139088       3.62041221      38.27861731       53      -0.24927200       0.17314400      -0.10454600 
I      13.04501791      15.06258273      18.87615414       53      -0.10967700      -0.25817200      -0.58081800 
I      13.35827204      15.08840064      37.78959701       53      -0.79546100      -0.65058600      -0.32684700 
I      17.62309253       3.58012167      19.08187270       53       0.11013500       0.07034700      -0.15918200 
I      17.12915422       3.86546417      37.98533242       53       0.25518800      -0.03015700       0.13770400 
I      17.68183130      14.68777926      18.62074540       53      -0.29575400       0.01306200       0.04736600 
I      17.27335873      14.99562797      37.90480921       53       0.15197700      -0.21183300      -0.27635000 
I       1.10490797       7.48289908       0.35031338       53      -0.21779100      -0.04724900      -0.26284400 
I       0.68335237       7.32474464      18.76968848       53       0.30172800      -0.08501800       0.45887300 
I       1.47168177      18.68963501      -0.57594429       53      -0.31254900       0.09243900       0.01764200 
I       0.21926936      18.16712311      18.64898261       53       0.59242700       0.34405500       0.28892000 
I       5.82224064       7.68909522      -0.21704325       53      -0.09269600       0.14114200       0.23709200 
I       5.85026504       7.73298185      19.50159445       53      -0.13672900       0.17763500      -0.54360500 
I       6.03023924      18.24997638      -0.14452911       53      -0.22738700       0.21018900      -0.01884400 
I       5.37055908      18.25995168      19.03932174       53       0.53869200      -0.24993500      -0.14485500 
I      10.45869510       7.46022616       0.00818265       53      -0.06368700       0.02228300      -0.73276000 
I      10.35276390       6.96932201      18.52366076       53      -0.31305800       0.40806800      -0.00200600 
I      10.42623418      18.99476728       0.31119473       53       0.13931200      -0.20222400      -0.62695100 
I      10.64646949      18.20768137      19.29364293       53      -0.59028400      -0.05534700      -0.36681200 
I      15.42660185       7.87655188       0.31169781       53       0.21930300       0.12489800      -0.72752900 
I      15.37219271       7.22752663      18.19366770       53       0.04810300       0.29271500       0.15057100 
I      15.58667741      18.59787340      -0.37997549       53       0.09033300       0.45061100      -0.15477500 
I      14.98892514      17.93612013      18.57834056       53      -0.12274000       0.23591200       0.29390900 
I       2.98292249       9.14091563       8.96337740       53       0.40656100      -0.34139400       0.14944400 
I       3.45486553       8.92261909      27.91771685       53      -0.12084900      -0.12324800       0.27483100 
I       3.76757440      19.60692255       9.57701052       53      -0.17964500      -0.31669900      -0.52043700 
I       3.34912457      19.51839517      28.01835346       53      -0.16138200      -0.01375800       0.24061000 
I       8.12819487       8.73105346       8.93708975       53       0.03769800       0.08044000       0.60246500 
I       8.37683803       8.36092971      28.31190214       53      -0.33185500      -0.06274900       0.11336600 
I       8.18564211      19.60179761       9.13604271       53      -0.01404600      -0.40895000      -0.17155600 
I       8.29423189      19.47613056      27.97732546       53      -0.12027400       0.18316300       0.08794900 
I      13.03301852       8.57876632       9.15130673       53      -0.26998700       0.05110800      -0.15303400 
I      12.58530277       8.50078695      28.39212233       53       0.14064900      -0.26948300       0.11429500 
I      12.72683596      19.89334083       8.46183796       53      -0.04037100      -0.39874200       0.47742400 
I      12.89249149      19.86719832      28.02971738       53      -0.55195100      -0.28097200      -0.02264100 
I      17.31963229       8.30471517       9.35104128       53       0.19822600       0.20133100      -0.05616700 
I      17.64202913       8.52466315      28.04177659       53      -0.10561400      -0.13661900       0.31771700 
I      17.83829998      19.95756347       9.01856616       53      -0.67214200      -0.25072800       0.14767300 
I      17.81985666      19.25656308      28.80272882       53      -0.05673700      -0.08556500      -0.28166300 
I       0.95316411       1.57214087       9.58821362       53       0.15224300       0.18918700      -0.19492500 
I       1.20205635       1.18799365      28.16012103       53      -0.11710200       0.15925100       0.26941000 
I       0.82513171      12.25850471       8.97147571       53      -0.18747100       0.43202700       0.31051600 
I       1.05492848      11.91512952      28.10227957       53       0.00553600       0.26267700      -0.13247900 
I       5.87870819       1.51767191       9.29117083       53       0.00862900       0.20655400       0.16964600 
I       6.27192654       1.21080485      28.79227593       53      -0.31681700       0.07568100      -0.08110300 
I       5.97307640      12.19742706       9.97593634       53       0.13234000       0.06132100      -0.35204200 
I       6.11647481      12.08440174      28.06787301       53       0.06608000       0.25840200       0.15440900 
I      10.30130655       1.35893397       9.91398296       53      -0.00025700       0.12804200      -0.09220700 
I      10.68470063       1.17949032      28.53315146       53      -0.21208600       0.13189100      -0.15286700 
I      10.34868434      12.39363809       9.10297280       53       0.02906600       0.02305800       0.27393200 
I      10.45299941      11.91254842      28.48099980       53       0.10055100       0.33736800       0.06541900 
I      14.81418180       1.84876332       9.00729442       53       0.53927400       0.00550700       0.58467600 
I      15.27949752       0.79876070      28.61720505       53       0.21431100       0.58314100      -0.06832200 
I      15.26998901      12.27164657       9.61431886       53      -0.19085500      -0.06403600      -0.38606700 
I      15.33565518      12.17972119      28.50160549       53      -0.18199000       0.05404700      -0.32405300 
I       1.18921751       0.81643519      16.98805252       53       0.02043200      -0.13362200       0.18755900 
I       1.41624882       0.64526735      35.41282421       53      -0.02684500      -0.13350300       0.51821300 
I       1.22352110      11.81896376      17.03898619       53       0.00675000      -0.41789200       0.21114200 
I       0.81871719      11.13815719      35.65448896       53       0.13534200       0.38684600       0.07949900 
I       5.72632494       0.27464052      17.23593565       53       0.31112200       0.11502100       0.06400900 
I       5.63291386       0.90376028      35.90339689       53       0.25705300      -0.24856900       0.06477400 
I       5.45368105      11.20639367      16.88409048       53       0.28940000       0.04627400       0.08307300 
I       5.37227132      10.90137515      35.95427368       53       0.03786600       0.40703800      -0.24617000 
I      10.36237635       0.33704991      17.46927164       53      -0.28519500      -0.08142900      -0.38412400 
I      10.22004981       0.41375246      35.73196133       53      -0.02970800      -0.10906400       0.13155700 
I      10.75206727      11.24847490      16.46123453       53      -0.42866200       0.07309400       0.24011400 
I      10.66686139      11.58437547      35.66368562       53       0.03336600      -0.35025200       0.06071000 
I      14.76164867       0.70148875      16.97353184       53      -0.02117500      -0.32795700       0.13189400 
I      14.52576199       0.67883446      35.86174814       53       0.33827500      -0.03708500       0.13134800 
I      14.82603508      11.09910229      16.87229115       53       0.35780300       0.47229800      -0.00363200 
I      15.00395282      11.54687590      35.70664356       53       0.23260600      -0.10962900       0.15144200 
I       3.17207373      10.95092314       1.45411711       53       0.23206100       0.03439200       0.12956800 
I       3.36842401      10.89428986      21.13350379       53       0.22590500      -0.22241700      -0.12892200 
I       3.60619750      21.95049403       1.99968145       53      -0.21762700       0.02264100      -0.15733300 
I       3.56588441      21.33945770      20.81972206       53      -0.10819100       0.31752600       0.05686500 
I       8.60793418      10.94051439       1.41901429       53      -0.22491200       0.27070400       0.08443600 
I       8.50656011      10.92509248      20.58858669       53       0.12739900      -0.10051600      -0.12432000 
I       8.10184250      21.65779068       1.72802606       53      -0.03467500       0.19213600       0.13921200 
I       8.40059851      21.85840685      20.97101187       53      -0.13284000      -0.29464100      -0.00724400 
I      12.95110375      10.65319586       1.29320799       53      -0.10806900       0.67012200       0.38448600 
I      12.92411199      10.63331586      20.59452852       53      -0.11011700       0.28616900      -0.14181500 
I      12.83633874      21.62235148       2.11703051       53       0.25794700      -0.03343900      -0.18484700 
I      12.96290897      21.48793104      20.77963747       53      -0.06539300      -0.20496100      -0.15111700 
I      17.80079453      11.13180249       1.71671510       53       0.04222500      -0.20623400       0.20084700 
I      17.50500209      10.95870765      20.48958191       53       0.17234400      -0.16774700       0.47005200 
I      17.81081004      21.89755981       1.89550465       53       0.16599700       0.03374500      -0.31103900 
I      17.54708822      21.33643138      20.69196228       53       0.12232700       0.13116500       0.21708000 
I       0.85830852       5.35497145      11.29337160       53       0.05468700      -0.10963700      -0.02674600 
I       1.22758791       5.13372311      30.03663220       53      -0.28318600       0.03415500      -0.09366700 
I       1.18038076      16.19281435      11.37222376       53      -0.05893200       0.04050800      -0.09361100 
I       1.43260725      16.06460543      30.10240428       53      -0.45429500       0.18012600       0.15106600 
I       6.37198064       6.03574468      11.38922454       53      -0.44948700      -0.23504200      -0.18034200 
I       5.36606961       5.59647929      30.58307423       53       0.35234800       0.06824000      -0.39203200 
I       5.67618659      15.94738778      11.95551126       53       0.06386000      -0.04710900      -0.45770400 
I       5.35659542      16.35437366      30.17157337       53       0.27770200      -0.25227700       0.17432400 
I      10.44432055       5.63368859      11.53104996       53      -0.09643100       0.02972300      -0.28298400 
I      10.99832839       5.17328796      30.52622324       53      -0.10880900       0.03190100       0.23592200 
I      10.60076373      16.48223641      11.14959368       53       0.01553200      -0.14828800      -0.15848700 
I      10.89154891      16.42394875      30.22131652       53      -0.23504300      -0.13272400      -0.04883800 
I      14.84052829       5.62895002      11.36092947       53       0.09053800      -0.28385800      -0.11090500 
I      15.40633057       5.18459402      30.13368546       53       0.12061700      -0.28217200       0.84138100 
I      14.66894073      17.11099920      10.70150037       53       0.06709800      -0.55306100       0.08159400 
I      15.39928941      16.11627852      29.87219661       53      -0.10465500      -0.00170900       0.43280100 
I       3.41295395       4.49352383       7.25714068       53       0.10303400       0.56804900       0.05912200 
I       3.61096646       4.77679124      26.37730239       53      -0.28654300       0.15841600      -0.16959600 
I       3.33530703      15.80126607       7.20392501       53       0.13006700      -0.01642300       0.12117700 
I       3.72741626      15.27666438      26.38838878       53      -0.32288200       0.13459900      -0.18450700 
I       8.13644029       4.60543512       7.64476436       53       0.22748700      -0.10954600      -0.26628500 
I       8.03377959       4.39855055      26.22383845       53      -0.05783200       0.07081700       0.50062700 
I       8.13101820      15.39874906       7.41409676       53       0.17951400       0.01362800      -0.20127400 
I       8.06623855      15.70107076      26.20112140       53       0.26547400      -0.12515300       0.36383400 
I      12.55189551       4.63257300       7.58676796       53      -0.13257400       0.02643600      -0.04547000 
I      12.93495420       4.32351611      26.55197806       53       0.07314400       0.15778000       0.07596900 
I      12.59764147      15.39424978       7.04084176       53       0.62672900      -0.02345500      -0.04561800 
I      12.92566340      15.39854116      26.25336817       53       0.02972700       0.18353700       0.16072000 
I      17.89788898       4.47994459       7.15712778       53      -0.32969500      -0.18257100       0.77722000 
I      17.22056671       4.59294834      26.33814942       53       0.25331400      -0.05518100      -0.19164800 
I      17.55260935      15.93513538       7.51120984       53       0.00864100      -0.10425100      -0.11959700 
I      17.41502529      15.50473911      26.10175279       53       0.03438100       0.09044400       0.25164300 
I       1.65617486       3.57766119       3.80973996       53      -0.43332900      -0.48286600      -0.16024000 
I       0.96489775       3.23470180      22.79575091       53      -0.29420800      -0.15128900       0.19977600 
I       1.00207467      14.26708960       3.67531168       53       0.19382900       0.00951400       0.01225300 
I       0.84303273      13.87634055      23.10916782       53       0.06207000       0.19944300       0.47181000 
I       5.73136065       3.61848619       3.83858616       53       0.18829200      -0.02146000      -0.17068500 
I       5.91447296       3.64114734      22.83011824       53      -0.05137300      -0.27304600       0.05115300 
I       5.57804774      14.25172163       3.80833369       53       0.25954600       0.21840400      -0.00150800 
I       6.06629331      14.15178129      22.86019615       53       0.07828700      -0.26903500      -0.33348600 
I      10.65759217       3.15373632       4.58262784       53      -0.21736200      -0.10994200      -0.35948600 
I      10.39977001       3.34019760      22.98415978       53       0.21269400      -0.07831300      -0.21087000 
I      11.33557247      14.08042630       3.53563880       53      -0.35925300       0.05897300      -0.04678000 
I      10.90000517      14.11301667      22.26000104       53      -0.19844500      -0.26919200       0.14534500 
I      14.63971501       3.29885285       3.98139814       53       0.59733300       0.33753300      -0.39592000 
I      14.67978686       2.94106584      22.86334702       53      -0.06267200       0.00013200       0.21419700 
I      15.52980583      14.46987597       3.52447788       53      -0.32638400      -0.25105300       0.24289500 
I      14.80642280      13.69010482      22.60744010       53       0.44523300       0.33710900      -0.05065300 
I       3.70565731       7.65439545      15.40189503       53      -0.34091000       0.32794200       0.03583700 
I       3.33428616       7.13762926      33.64604137       53      -0.18272500       0.49825900       0.71488100 
I       3.68258623      19.01661351      14.70300798       53      -0.13044500      -0.13899000       0.27480100 
I       4.08191804      19.22688038      34.22508259       53      -0.00961500      -0.50027300      -0.64042100 
I       7.92489561       7.71100617      14.88781095       53      -0.10825600      -0.22117300       0.09397300 
I       7.62037037       7.35270040      33.94369805       53       0.17975600       0.07091300      -0.08457200 
I       8.13093975      18.89808079      15.36986952       53      -0.02492100      -0.11839400       0.04105200 
I       8.08590379      17.94154025      34.43897203       53      -0.16128900       0.63955900      -0.21967200 
I      12.86269013       8.26619179      14.86316199       53      -0.10852400      -0.56617400      -0.35646100 
I      12.67899040       7.84587576      33.55831911       53       0.26229900      -0.00629900       0.41220400 
I      12.93879643      18.51910558      14.93467978       53      -0.42306400       0.27964300       0.16181300 
I      12.87348723      18.39025138      33.99978412       53      -0.33287000       0.21722000      -0.02874700 
I      18.62957333       8.04151899      15.18456346       53      -0.59131900       0.05176500      -0.55947900 
I      17.13625912       8.08328149      33.99989396       53       0.00600300      -0.16001500       0.56298100 
I      17.33911022      19.15189497      15.00658394       53       0.55795200      -0.40283600      -0.42601800 
I      17.39076173      19.37846536      33.93431311       53      -0.01519900      -0.21407300      -0.28882500 
I       0.71672825       8.20893481       5.71080988       53       0.13475500       0.33830400      -0.70983200 
I       0.37236750       7.76778165      24.22460811       53       0.16537400       0.04679100       0.42534700 
I       1.45845557      19.38080621       5.83258271       53      -0.25532200      -0.18109500      -0.36861200 
I       0.98614969      19.17180243      24.52204904       53      -0.31995000      -0.27329000       0.09246000 
I       5.88715464       8.36197412       5.25073777       53       0.39823900      -0.16145200       0.48601900 
I       5.60379406       7.94378906      24.28781183       53       0.00423700      -0.06874300       0.33650600 
I       6.07308832      19.01068736       5.45615428       53       0.11994300      -0.02707900      -0.59651600 
I       5.07627882      19.01587899      24.30469100       53       0.17552700      -0.09732800       0.12016300 
I      10.58299020       9.06985777       5.62465276       53       0.08438900      -0.31030900       0.16779000 
I      10.40395744       7.87529270      24.90143123       53       0.37466000       0.54088000       0.22962500 
I      10.77321624      19.16813083       5.17697623       53      -0.33079100      -0.00890200      -0.02173600 
I      10.40952074      18.26569052      24.02143437       53      -0.16335500       0.50120800       0.78865400 
I      15.62716997       8.22264938       5.69030225       53       0.04484800       0.07320700      -0.11664000 
I      15.02891952       8.31204661      24.74169301       53      -0.03295800      -0.17634900      -0.04732500 
I      15.53643609      19.45688505       5.03701504       53       0.00334500       0.02860100      -0.11706100 
I      15.45493811      19.57010160      24.72599848       53      -0.31727000      -0.35400400      -0.16704900 
I       3.23017114       2.11763950      12.97232628       53       0.38828700      -0.22593400       0.10774900 
I       3.70346651       2.11493680      32.10661345       53      -0.35450300      -0.15020300       0.18925800 
I       3.19972548      13.09757360      13.51877811       53       0.12763000      -0.07270300      -0.40326200 
I       2.82316957      12.48007176      31.88551319       53       0.53743800      -0.07943900       0.33364300 
I       8.31369805       2.33110334      13.64205626       53      -0.20653000      -0.45359300      -0.44105200 
I       8.24987160       2.18484727      32.07032402       53       0.13842900      -0.23960400       1.12739300 
I       9.35050878      12.62745852      13.20269281       53      -0.48844700       0.05893300      -0.10718100 
I       8.42643505      12.72457553      32.25106901       53      -0.22385400      -0.05715600       0.20658000 
I      13.35039339       2.24908461      13.69733427       53      -0.63726600      -0.12160900      -0.36071400 
I      12.56790581       2.03004866      32.29660904       53       0.30809300      -0.86274400       0.68203900 
I      13.23247849      13.22356132      13.45406025       53      -0.30369100       0.11112700      -0.85392100 
I      12.65208689      13.00730064      32.28116065       53       0.17649600      -0.08009800       0.04304000 
I      17.22138360       2.13221510      13.40089067       53       0.23479600      -0.22741400       0.04218800 
I      17.58417002       1.91136785      32.09538878       53      -0.16276300       0.46318600      -0.21117700 
I      17.06736069      13.10040869      13.51656378       53       0.39545900       0.07151000      -0.34622800 
I      17.64003937      12.74411230      31.70249110       53      -0.22719400       0.28061700       0.28553100 
H       3.77972874       1.21866780       4.98185962        1      -1.25424500       0.50509000       0.07784400 
H       4.16736810       1.90213099      24.73990722        1       0.81024300       0.63360800      -2.08198700 
H       4.05926375      10.76603289       5.73087424        1      -2.04510100      -0.37833400      -0.50847000 
H       2.23133069      10.21931137      25.39802322        1       0.16570200      -0.04676400      -0.58378000 
H       8.22782728       1.58727544       5.18746344        1      -0.32912900      -0.61268600       0.36735200 
H       8.56981287      -0.53552627      24.75288041        1      -0.10776100      -1.24547500      -1.16034100 
H       6.73209280      11.66402883       5.27133463        1      -2.17852900      -0.52571500      -0.58375300 
H       8.20006373      11.50318345      23.78867698        1       0.04244800      -0.07119700      -1.82256800 
H      14.03403800      -0.09379354       6.47638201        1      -0.60541000       1.11922500      -0.67745300 
H      12.87335582      -0.34809512      23.81619438        1       0.54480900      -0.79243000      -0.88635200 
H      13.67663738      10.41590976       6.04740672        1       0.03880300       0.13382900      -0.77240800 
H      13.22783897      12.39882678      24.69265006        1      -0.31697200      -0.85266300      -0.01502100 
H      17.11829141       1.37901109       4.86514799        1       1.91738300      -1.36817600       0.56403200 
H      16.90014688       1.37538852      24.98456790        1       1.54289500      -1.10692700       0.49984200 
H      16.06941558      12.14639140       5.33130413        1       1.55329500      -0.01547100      -0.81715400 
H      17.91675400      11.09850016      23.89142201        1      -0.13679600      -0.38662300       0.56032300 
H       1.47795801       9.75836941      12.01631726        1       1.70955700      -0.90228200      -0.33485000 
H       1.03774629       8.28748100      31.17585846        1       0.92416400      -0.00042100       0.24125900 
H       2.20637086      21.21522929      11.71928820        1      -0.34177000      -0.39126100      -0.30669500 
H       1.39901465      20.11179232      30.42552191        1       0.02871400      -0.28053200      -0.09329900 
H       6.29810926       9.53111942      11.46215251        1       0.19279800      -0.58081900       0.18572400 
H       4.81508907      10.06423130      30.28908522        1      -0.46433100      -0.27949300       0.66634900 
H       5.74109079      19.73776946      11.89614879        1      -0.07478300      -2.13776800      -0.15493700 
H       7.13305545      19.69245891      32.59111681        1       0.16432100       1.16819700      -1.31185600 
H      11.93198319      10.07976991      12.20845952        1       0.02444400       0.42094400       0.58115700 
H      10.16236918       9.93303332      30.87624242        1       0.66181700       3.34150100      -2.58542200 
H      10.67564029      19.24650639      12.51911685        1      -0.30269900       2.16670600      -0.46590400 
H      10.79096918      19.52069973      30.84930557        1      -0.38715100      -1.74225600       0.11882000 
H      16.14294961       9.54155074      11.50245678        1       1.09633800       0.84437300      -0.25756300 
H      15.82098818      10.17105981      30.39038084        1      -0.14500200      -0.24588700       0.42350100 
H      16.13275660      21.45993312      11.49870476        1      -1.91632200      -0.59221400       0.71838200 
H      15.97055103      19.76356579      30.79696563        1      -0.89196000       0.89306500       0.86547000 
H       3.22584936       6.98985219       2.09324257        1      -1.28653300      -0.98674000      -1.13374300 
H       3.32468253       7.10139769      21.12886917        1      -1.12101400      -1.78274300       0.49564800 
H       3.70215242      16.64942570       1.48683791        1      -0.13986800      -0.84769500      -0.27982400 
H       3.46486338      18.12201949      21.18930350        1      -0.14323100      -0.55221600       0.86596300 
H       9.03664861       7.49224872       3.12440273        1      -0.29139900      -1.05907400      -0.01125800 
H       9.41876782       7.38786010      22.18934625        1      -0.14902100      -0.49813400      -0.08630100 
H       9.21752305      17.82507575       2.25546775        1       0.94842600      -0.05491100       0.24848800 
H       6.93907641      17.39006742      21.11137513        1      -0.11534800       0.36422900       0.72200300 
H      12.55851106       8.19193502       2.52561978        1       1.15088100      -1.07776400       0.61452000 
H      13.61077508       6.24407670      21.23423552        1      -0.24313800      -0.32837900       0.28799600 
H      13.56729543      16.64648273       1.73584097        1       0.50136700       1.57711500       1.91905800 
H      11.28645597      17.28976032      21.76583227        1       0.30287900      -0.82746400       1.05795000 
H      17.77210132       6.18594693       2.24090000        1       1.08950300      -0.76623500      -0.67835400 
H      17.80671872       6.58505122      21.41916206        1       1.74050800       0.26262600      -0.73273600 
H      18.90985953      18.36105018       3.22793229        1       0.34249200      -0.18339200      -0.30852600 
H      17.57181858      17.48324314      20.90376193        1       0.88254900      -0.50120000       1.46769400 
H       1.57547218       5.11351165      14.48910285        1      -0.76566400      -0.07340500       0.56799400 
H       1.76983564       4.13950453      33.88323234        1      -0.72274600       0.17042700       0.99040000 
H       1.41461503      17.14454376      14.80649145        1       0.81546400       1.13830200      -0.12044300 
H       1.47424032      16.34073264      33.24558278        1      -1.14204300      -0.52413000       1.09285400 
H       5.15150057       4.63175317      14.12458359        1       0.25440500       0.34045300       0.92833100 
H       6.48271317       4.64455376      33.77529372        1      -0.70105500      -0.30895900       1.01994700 
H       6.57690486      15.00785390      14.84761456        1       0.15953600      -0.08035100      -0.13578600 
H       6.31766466      14.68308581      33.73090205        1      -0.29814000      -0.30911700      -1.79305500 
H      11.49428883       5.37850343      16.40411975        1      -0.90623000      -0.82944200      -0.71225400 
H      11.56570365       3.28411152      35.34671086        1       0.64535600      -0.93207800       0.84145900 
H      11.64483922      15.09331769      15.11949158        1      -0.67976900       0.02300300       0.17617000 
H      11.10396049      14.49939294      34.30514881        1      -3.11078200       0.64954000      -0.09256100 
H      16.47663781       5.75846225      14.76451613        1      -0.47728400       0.16884500      -0.30676000 
H      16.61811117       4.09559731      34.55704580        1      -0.44400400      -0.10569200      -0.13943700 
H      15.47298524      16.91339759      16.14944650        1      -0.92739000      -1.63401700      -1.04448000 
H      16.44183310      15.92615446      33.48798303        1      -0.52604600       0.97210800      -0.51725900 
H       5.03412503       1.32294757       5.93452948        1       1.03401400       0.95622200       0.80396500 
H       3.20888978       2.35635737      25.97374882        1      -0.62915500      -0.90085200      -0.32966800 
H       2.47993070      11.33222841       4.95908471        1      -0.42711200      -0.68583500      -0.44394800 
H       3.92091575      10.15428361      25.37986723        1       2.37121400      -1.01996700       1.34510000 