768
Lattice="20.2955219308 0.00286886102132 -0.0100073900682 0.000985944664016 22.6970131097 -0.035097767814 -0.0490623859409 -0.0495341495996 39.2925992255" Properties=species:S:1:pos:R:3:Z:I:1:forces:R:3 energy=-99806.4548466 stress="-3070.942295 2189.368263 1568.839522 2189.368263 1636.796618 1014.047061 1568.839522 1014.047061 -66.075441" pbc="T T T"
I       3.75167877       3.21081622      20.38445559       53       0.78027400       0.90123700      -0.41717400 
I       3.09196592       3.86079481      38.85149814       53       0.32595800      -0.29887300       0.37611800 
I       3.82071869      15.63032767      18.92680520       53       0.08849600      -0.91775000       0.46703500 
I       4.03151842      14.97341229      39.16825433       53      -0.22134900      -0.03758400       0.10995300 
I       8.60268584       3.33472660      20.13933816       53      -0.05218400       0.27182700      -0.12498700 
I       8.64318199       4.25284386      39.66879143       53       0.15445200       0.09099700      -0.61799200 
I       8.76973052      15.14622263      19.74413988       53       0.15206400       0.28534400       0.01104500 
I       8.17731331      15.43746944      39.29985052       53       0.56014200      -0.27857400       0.32250600 
I      14.02561117       3.36461428      19.76404913       53      -0.19962100       0.42984600       0.16046600 
I      14.08841677       4.31454041      38.12138387       53      -0.40405100      -0.28536300       0.75235600 
I      13.95422691      14.87587412      19.78889535       53       0.17726300      -0.06694900      -0.10015700 
I      14.02578808      15.23355374      38.95690007       53      -0.08034200       0.09451900      -0.18314200 
I      19.19241849       3.52754241      19.65764263       53      -0.04098200       0.05920100       0.02221700 
I      18.65865412       3.67054370      39.73141806       53       0.60131100      -0.15361500      -0.64497100 
I      18.97246178      14.77377453      19.63952318       53      -0.19245700      -0.20932800       0.02379600 
I      19.42091556      15.90471824      39.78597194       53      -0.23163800      -0.53615200      -0.78430600 
I       1.60256563       7.50526942       0.52113952       53      -0.15950200       0.53969600      -0.47282800 
I       1.77463936       7.58385635      19.82881007       53      -0.89447800      -0.32004900      -0.65333100 
I       1.84982462      19.43060947       0.83997106       53      -0.82249000      -0.10547400      -0.39276100 
I       0.86814755      18.31642372      19.15162231       53      -0.11887900       0.68518900      -0.20236500 
I       6.28206592       7.63036646       0.38168784       53      -0.29339400       0.49543600      -0.12014900 
I       6.01148360       7.79523234      19.37989178       53       0.25551400      -0.21450300       0.22954000 
I       6.23408259      19.02482031       0.14184775       53       0.49667600       0.15896000       0.20482800 
I       6.01788862      19.05494904      18.92775700       53       0.56661600      -0.12063100       0.18900800 
I      12.01329397       7.83696997      -0.30979147       53      -0.21778300       0.39096500       0.17751200 
I      10.98554029       7.35580311      19.13083574       53       0.36446200      -0.08913700       0.41107800 
I      11.16491807      19.05341684      -0.13375327       53       0.24870200      -0.25219300       0.27071900 
I      11.43351816      18.54276889      19.47626399       53      -0.33705800       0.08646900      -0.25917200 
I      16.74668602       7.47542520      -0.61008973       53       0.13991000       0.48208900       0.56657000 
I      16.59971405       7.80465106      19.73084980       53      -0.60746600      -0.44088300       0.06638600 
I      16.12852458      19.48307559       0.20489027       53       0.11987300       0.04375000      -0.47517400 
I      16.66916883      18.91330304      19.25424953       53      -0.08354600       0.33251500       0.10929700 
I       4.13415909       9.13695715       9.91102717       53      -0.04471300       0.42947000       0.00866600 
I       3.75348927       9.00754803      29.03119650       53       0.27301300       0.04075700      -0.13688900 
I       3.57988852      20.78351902       9.58032912       53       0.29105000      -0.14023600      -0.53901200 
I       3.35323815      20.51216180      29.65859871       53       0.81873700       0.33819300      -0.06256600 
I       9.33598244       9.59216873      10.11965637       53       0.04657900      -0.02913700      -0.33467500 
I       8.33455338       8.74107812      29.06905967       53       0.66343000       0.23366100       0.26484900 
I       9.05017229      20.93365677       8.93089368       53      -0.30229200      -0.00806900       0.27146900 
I       8.88880636      20.40186532      29.29541829       53       0.45348300       0.44855900       0.70345900 
I      14.59400465       9.12698080       9.80210253       53      -0.86856200       0.75902300       0.09470800 
I      14.12951401       8.95140402      29.09721962       53      -0.34904600      -0.32560600       0.55521800 
I      13.94973481      20.72678013      10.10662390       53      -0.13022600      -0.28070600      -0.27543400 
I      13.69705985      20.51822852      28.93711069       53      -0.02679500      -0.25108800       0.50005800 
I      18.91898799       9.39977503      10.34539321       53      -0.80622900       0.33533100       0.14661300 
I      18.68710478       9.27321615      29.38737082       53       0.05642800      -0.45349200       0.19335000 
I      19.08114951      20.88953652       9.51253068       53      -0.37110500       0.55802200       0.06180600 
I      18.82709754      20.48482641      29.43275014       53      -0.19605600       0.35383600       0.10425200 
I       1.59393215       2.33910561       9.03581557       53      -0.69614300      -0.62328300      -0.31691900 
I       0.91223366       1.26443524      30.13022995       53       0.56353000      -0.44588000      -0.12157300 
I       1.55471990      13.11298851       9.69435833       53      -0.17860900       0.34584200      -0.29159700 
I       1.80623304      13.07268168      28.83041864       53      -0.45246200      -0.40042500      -0.04512400 
I       6.71367690       2.19260230       9.15463691       53      -0.29526800      -0.30939100       0.13800000 
I       6.49390539       1.47810486      29.15258770       53       0.01830700       0.20338600      -0.46794500 
I       6.51584343      13.61124335       9.37545747       53      -0.38531300      -0.20889300       0.43073100 
I       6.42559381      12.70552024      29.29564796       53       0.10332000       0.23940800       0.00904000 
I      11.45020783       1.86287675       9.86096125       53       0.48936900      -0.28634800      -0.23809700 
I      11.79396422       1.71370218      29.58833490       53      -0.05131100       0.25005100       0.21312100 
I      11.44661270      13.61176167       9.91722114       53      -0.21826600      -0.03726100       0.05542800 
I      11.25117426      12.80643731      29.31079613       53       0.28377500      -0.03108700      -0.09841600 
I      16.61735449       1.86939247      10.02922879       53      -0.08645800      -0.01464500      -0.58934700 
I      16.66948748       1.73263894      29.55926349       53       0.42001000      -0.39832400      -0.29495900 
I      16.17515469      13.16336169       9.77220450       53      -0.27807300       0.24743200       0.47400600 
I      16.29832432      12.61916059      29.13520280       53       0.06313400       0.15375600      -0.20701900 
I       1.37651945       0.75299791      17.40841317       53      -0.11812000      -0.06893900      -0.10198600 
I       1.50714315       0.32975349      37.23822782       53      -0.24992400      -0.21834300      -0.14466600 
I       1.23995112      11.81959154      17.43812808       53      -0.33081700      -0.24375300      -0.92789100 
I       0.97170278      12.36834268      37.73283373       53       0.31512100      -0.56413100      -0.20829700 
I       6.11677173       0.43383221      17.68085255       53       0.17076700       0.02470900       0.21662100 
I       6.26630012       0.60290568      37.13770077       53       0.09612200       0.01266500       0.55102000 
I       6.43767861      11.54968272      17.67905136       53      -0.75625700       1.15035900      -0.35667300 
I       6.24482763      11.87837267      37.34088607       53       0.23362400      -0.04936000      -0.01621500 
I      11.55718128       0.58804099      18.04679941       53      -0.30428200      -0.43080200      -0.15832800 
I      11.36589146       0.27362292      36.87557502       53      -0.38339900       0.52259300       0.34992700 
I      10.97456454      11.47610518      17.43840534       53       0.75713600       0.43605900      -0.14858700 
I      10.80974315      12.16875561      37.51215180       53       0.13187200      -0.33130900      -0.10973300 
I      15.92058336       0.26368795      17.76363052       53       0.67059300       0.29573200      -0.10110500 
I      15.84428904       0.86013999      37.73000108       53       0.59196200      -0.40192400      -0.40045800 
I      16.40080670      11.41386548      17.62255042       53       0.08268700       0.09508400       0.57753900 
I      17.08211205      11.95532808      37.24260094       53      -0.34978000       0.13457900      -0.12911600 
I       3.81113341      11.14021152       2.70534525       53      -0.08891100       0.10647100      -0.60315800 
I       3.78521330      10.72223306      21.68581461       53       0.14023900       0.53448200      -0.55845800 
I       4.32525337      22.67875399       2.30704223       53      -0.29486300      -0.20841500      -0.75165000 
I       3.57074085      21.47183772      21.51920961       53       0.06313400       0.35504200       0.16155100 
I       8.98927857      11.16655993       2.28813444       53       0.40077200       0.17125600      -0.03808000 
I       8.57838484      11.44921775      21.74661315       53      -0.04052900      -0.46839300       0.03509000 
I       8.90893701      23.02684833       2.09914757       53      -0.06629600       0.25051200      -0.22900900 
I       8.97020422      22.05785819      22.02909405       53       0.03788500       0.13130000      -0.23775100 
I      13.72190814      11.54680868       2.14020136       53       0.02863000       0.17200600      -0.48454000 
I      13.56166265      10.83140703      21.84588008       53      -0.03037100       0.01351300       0.03869900 
I      13.42591265      22.92400592       2.01687655       53      -0.04318400       0.00144600      -0.07916100 
I      14.00362243      22.29459147      22.13631993       53      -0.03387600       0.18189200      -0.28961500 
I      18.90773291      11.46057939       2.03266614       53      -0.31372100      -0.12374600       0.24934500 
I      19.15151161      10.51672618      21.33503453       53       0.23712600       0.51037200       0.15783400 
I      18.34465609      22.89333300       2.27683694       53      -0.15735500      -0.21261000       0.13525200 
I      18.99877088      22.25552199      21.83672518       53       0.05296000      -0.17092800       0.12008200 
I       1.50972958       5.82665260      11.27019172       53      -0.23127800       0.61511900       0.42637600 
I       1.72472138       5.73250264      31.21911634       53      -0.60324500       0.26586400       0.53517200 
I       0.70580189      17.66823597      11.89560239       53       0.08246000      -0.42315500      -0.29905600 
I       1.19436281      16.62355880      31.16694611       53      -0.12140200      -0.03074700       0.67768300 
I       6.66892143       5.64555743      11.66890133       53      -0.48946400       0.69905500      -0.00265800 
I       6.03523835       5.35318811      31.59627276       53       0.39954700       0.33546300      -0.57354000 
I       6.07757500      17.56739028      11.72589783       53       0.45919400       0.09728700      -0.06116600 
I       6.33664256      17.01239345      31.07692719       53       0.02499300       0.06823500       0.52196400 
I      11.43413787       6.17172909      11.93200475       53       0.13344700      -0.25494100      -0.04777700 
I      12.23770346       5.50969156      31.99157864       53      -0.30051400       0.57137400      -0.62511100 
I      11.00052499      17.62633281      11.94096101       53       0.30076400      -0.05681700      -0.09731300 
I      11.41979770      16.97876063      31.29176070       53       0.06033200      -0.21856300      -0.23055200 
I      16.28866351       6.11483398      11.74325273       53       0.51866500      -0.25113800       0.06793400 
I      16.76512825       5.83890707      31.88581667       53      -0.04462500       0.01102500       0.09433800 
I      16.46837856      17.10070015      12.42628477       53       0.13915500       0.13947500      -0.13023000 
I      16.67714536      16.57601724      31.06472340       53      -0.03339500      -0.01990600       0.47553100 
I       4.45506701       5.26106591       7.61354746       53      -0.09795700       0.22423000      -0.04540100 
I       3.55114921       4.85969642      27.40892749       53      -0.28491500      -0.19837400      -0.43018700 
I       3.63664293      16.95067207       7.27399660       53       0.29742500      -0.00286900       0.36358100 
I       3.90539820      16.47938535      27.71045482       53       0.03025900       0.22329800      -0.13944800 
I       9.19678837       5.61967457       7.66373029       53       0.18416900      -0.27906900       0.08166500 
I       8.85738545       4.53700904      27.12725045       53       0.13195200       0.53701600      -0.36274500 
I       8.79848535      16.55961000       7.59480003       53       0.09217100       0.34919400       0.27039000 
I       8.47304395      16.61156918      27.38503515       53       0.06166100      -0.26049700      -0.24496400 
I      14.27841028       4.88764221       7.73095557       53      -0.51605000      -0.04050500       0.00695500 
I      13.78291773       4.65754776      27.33983895       53       0.23552500       0.21009000       0.26617900 
I      14.01412745      16.73813323       7.89657876       53       0.13268900      -0.11330600       0.12412500 
I      13.97342542      16.34883924      27.11439799       53      -0.23555800      -0.02212200       0.36230100 
I      19.38210576       5.94122081       7.54535899       53       0.29932600      -0.34151600      -0.05627700 
I      19.39890613       4.72296669      27.86487259       53      -0.57550100      -0.24609800      -0.13571000 
I      18.64410290      16.44835861       7.96441444       53       0.37646000       0.04037700      -0.28906900 
I      19.10465700      16.44823860      27.34132976       53      -0.33902800      -0.23205200      -0.13145100 
I       1.50820876       3.24958981       3.76855053       53      -0.31505200      -0.33125000       0.07483000 
I       1.27980273       2.73320000      23.59016414       53       0.08651800       0.36665400       0.60338800 
I       1.21642811      15.31431533       4.41761663       53      -0.36955200      -0.19393200      -0.15379100 
I       1.62643004      14.53189013      23.10401272       53       0.03659500       0.37156800       0.49607400 
I       6.66664641       3.42519763       4.25484989       53       0.15487000       0.17367800      -0.49564500 
I       6.78735790       2.90969341      24.09894055       53      -0.39908900      -0.06519200      -0.27608000 
I       5.95454710      14.69538003       4.01864217       53       0.19888700       0.23766700      -0.17506700 
I       6.21038785      14.43234593      23.70669183       53       0.07765000       0.13482200       0.52950900 
I      11.57983421       3.63496072       3.63663879       53      -0.39843000      -0.20124600      -0.22011600 
I      11.21932194       3.34297419      24.21574137       53       0.12270300      -0.36595100      -0.26938400 
I      11.17891580      14.93966671       4.11406568       53      -0.18462000       0.23698500       0.27852900 
I      11.55858208      14.50488787      23.33068792       53      -0.05492900      -0.03818700       0.13056200 
I      16.53394647       4.39691386       4.08642716       53       0.13104200      -0.28340000       0.01430100 
I      16.28186535       3.19649571      24.49835781       53       0.34770800      -0.07932600      -0.57403100 
I      16.35654471      15.25889034       3.78512123       53      -0.20962900      -0.14200100      -0.22875800 
I      16.91915702      14.68851774      23.90358281       53      -0.32871700      -0.11028200      -0.23564100 
I       3.32954651       8.21061093      15.28157845       53       0.05358700      -0.35178200       0.14338200 
I       3.61260471       8.71714233      35.69052540       53      -0.03691200       0.52736000      -0.44373200 
I       3.45527773      19.88845714      14.94630864       53       0.48491300      -0.00562600       0.33417000 
I       3.66161329      19.05044763      35.38683479       53       0.02657900      -0.03117000       0.52808400 
I       8.40131725       8.64110044      15.56116153       53       0.26104000      -0.34840800      -0.12452600 
I       9.14351011       8.16395805      35.35786581       53      -0.55452300       0.47814100       0.42149100 
I       8.80928522      19.78784837      15.35690649       53      -0.46930500      -0.28857100       0.27517500 
I       9.19551481      19.76268764      35.68589570       53      -0.42794100      -0.30803700      -0.27735600 
I      14.08394330       7.68588766      15.90330502       53      -0.30256200       0.27495000       0.24867600 
I      13.63570161       8.60363971      35.33242161       53       0.06540800       0.04118100      -0.04189600 
I      13.75550371      19.89205123      15.18324470       53       0.12003400       0.06482000      -0.05061100 
I      14.52714146      20.20129645      35.42810687       53      -0.16608800      -0.52953000       0.14125200 
I      18.29631894       8.46301690      15.16183014       53       0.51038300      -0.25146000       0.19737500 
I      19.09277393       8.33785159      35.42022552       53       0.22020300       0.15430900      -0.53328500 
I      19.12960253      19.48777978      15.21267716       53       0.07502700      -0.63385300      -0.92748400 
I      18.99926127      19.97789774      35.38860287       53      -0.07910500      -0.19012900       0.86004900 
I       1.19507149      10.22919141       5.99546432       53      -0.16676900      -0.21237400       0.36252600 
I       1.06100371       8.12927515      25.26138483       53      -0.30766500      -0.04290200      -0.31278400 
I       0.51345681      19.95928583       5.44297942       53       0.15202000       0.68968600       0.38024500 
I       0.87205616      19.58982557      25.53138469       53       0.39200200       0.30683500      -0.21570500 
I       6.58418916       8.43025105       5.45609569       53      -0.02072800       0.09857300       0.21176400 
I       6.26023650       8.67895740      25.19142311       53      -0.10464500       0.00793900       0.18592000 
I       6.15101804      20.57750624       5.40006134       53       0.29387600      -0.29991700       0.16707800 
I       6.13526052      20.60355360      25.57845553       53      -0.05597900       0.05573200      -0.49051300 
I      11.10151966       9.35483747       6.37758047       53       0.63298500      -0.20109900      -0.34852100 
I      11.05154168       8.01968838      25.28178654       53       0.08961400       0.70746000       0.86809900 
I      11.83758891      20.55422636       5.35313845       53       0.06650900       0.41604100       0.79593800 
I      11.38302910      19.33588533      24.81401632       53      -0.18979900      -0.23566000       0.33084400 
I      16.14842555       9.11635680       5.69135781       53       0.34419800       0.26941000       0.56923100 
I      16.53118107       8.20569258      25.48022006       53      -0.11738800      -0.19869800       0.05138500 
I      16.20392917      20.56717917       5.92428802       53       0.08290300      -0.47398800      -0.34520100 
I      16.53844271      19.54066801      25.31492483       53       0.27672600      -0.07064900       0.30654000 
I       3.82938528       2.30542623      13.90149077       53      -0.24897900       0.42434200      -0.21188800 
I       3.93085275       2.27928060      33.66374182       53      -0.14362000      -0.37342100      -0.55183600 
I       4.06889224      13.88474833      13.55037756       53       0.31733300       0.41375400      -0.14464900 
I       3.97645243      13.86620781      34.01549232       53      -0.24492500      -0.49252000      -0.08087700 
I       8.54967140       2.66723792      13.81282817       53       0.14028800      -0.32051400       0.24722500 
I       8.74026599       2.26686369      33.02110557       53      -0.02524900      -0.67829400       0.29231300 
I       8.59551938      13.77072740      14.18450965       53       0.41790400       0.01782600      -0.67497500 
I       9.32962398      13.43298600      33.54310171       53      -0.18545600      -0.05553500      -0.59051700 
I      14.02535873       1.64340940      13.96144303       53      -0.03975500       0.49602600      -0.08055700 
I      13.69161181       1.49019173      33.75178885       53      -0.01381900       0.45474200      -0.23353900 
I      13.82229345      14.10704730      14.61498054       53      -0.66534900      -0.28157900      -0.81351300 
I      13.98824562      13.73194346      33.44751991       53      -0.03000400      -0.03877400       0.23870100 
I      19.23429475       2.57020359      13.53667986       53       0.05301100      -0.29731000      -0.31154800 
I      19.60718772       1.94885774      34.35031416       53      -0.06645700       0.31279600      -0.36393400 
I      18.86571077      13.48611218      14.06968900       53       0.07059000      -0.25268000      -0.56817400 
I      19.09680565      13.39231501      33.06918408       53      -0.32757600       0.03378900       0.34824400 
H       2.13162064       0.93542147       5.92580573        1       2.39927200      -1.54798200      -0.92200000 
H       3.19848829      -0.11533587      27.30661272        1      -0.87780200       0.95170300      -0.39815500 
H       4.71383144      10.79158231       6.56515619        1       1.09890200       0.57137500      -0.49690300 
H       2.26498078      11.83637949      24.94304368        1       0.81776500      -1.01150000       0.26492700 
H       9.34822554      -0.13716528       5.05580319        1      -0.13430600      -1.93002400      -2.14687100 
H      10.14650655       0.42580188      27.70697660        1       0.01114700       0.67970500       0.96741300 
H       9.30008806      12.96473161       5.50756345        1      -0.04855800      -0.31649800      -0.50018000 
H      10.18715582      11.64145730      24.55818282        1       0.43784700       0.97374700       0.95133200 
H      14.86561326       2.09044271       5.98110553        1      -2.01336800      -2.20209200       0.67405400 
H      14.09336926       1.17868909      26.01402788        1      -2.98028900       3.99267700      -0.74099500 
H      13.16686681      12.10586000       5.08177502        1      -0.77121300      -0.84674100      -1.45844600 
H      13.97436377      11.78975145      24.68875479        1       0.09303700      -0.10184100      -1.37553900 
H      19.14615668       0.74699430       7.21664525        1      -1.75618100       0.30582900      -0.20585000 
H      19.42627670       1.83349808      26.63643002        1       0.50700800      -1.25428700       0.30702400 
H      18.48619760      14.01536686       6.17592220        1      -0.46649000      -0.99705900       0.97822200 
H      19.42218808      11.05942510      24.27863492        1       0.05916400       0.52754100       1.40045400 
H       2.10357967      11.85345299      13.78327880        1      -0.44123000       0.15562000      -0.00194100 
H       0.05412971      10.40434815      31.90735641        1      -2.06833600       0.26201300       0.52774500 
H       0.63778412      22.23915303      11.41036656        1       0.24775900       0.93688400       0.57698700 
H       1.42986185      20.62583512      31.30607397        1      -1.20717700      -1.06966900       2.97632300 
H       6.64581846       9.10058065      13.69576147        1      -1.05921900       1.37163300      -2.42942100 
H       6.32754145      10.99033345      31.74342785        1       0.21482600      -0.26417600       0.91207800 
H       7.74157232      21.83730764      12.21210304        1       1.92008200       0.13548900      -0.39304600 
H       7.19116070      21.26882519      33.55028473        1       1.35736500       0.83227100       1.37815300 
H      12.00734520       9.66772851      12.09580502        1      -0.31834900       1.43100400       1.24122700 
H      10.34370169       9.23661308      32.47508259        1       0.08624800       0.83505600       0.50388000 
H      11.29380680      20.83316180      12.79353209        1      -0.06578400      -0.15980600       0.36164400 
H      12.85286051      20.68850313      32.92016263        1      -0.64958400       0.23547000      -0.13397700 
H      16.96871186       9.94491656      12.38504477        1      -1.53095500       1.18293400       1.68870700 
H      16.19456735      11.24894063      31.81015447        1       0.64295200       0.49786200      -0.99559100 
H      17.67733087      21.37616487      12.28006183        1      -1.02529500      -0.57302500      -0.47849900 
H      17.93464795      21.02581725      32.64647557        1       0.32342200      -0.53610000      -0.00494600 
H       2.02588971       5.72146689       4.25929543        1      -0.51165700      -0.06427300      -0.29666700 
H       2.70089867       6.86276457      22.39066572        1      -1.31131800      -0.15059500      -0.23974300 
H       3.98877622      17.05437834       4.16944825        1      -0.32070900      -2.82612600       3.09162200 
H       4.19668019      16.60036893      22.05978662        1       0.67217200      -0.09942200      -0.39070500 
H       9.16113090       7.43943046       1.60145761        1      -0.24108600       0.63665100       1.10534200 
H       7.50029522       7.35013470      22.98168316        1      -0.36035500       0.64833900      -0.63095000 
H       9.85666158      17.64646036       4.88547685        1      -0.55096400       0.48505200      -0.31794100 
H       7.35645696      18.28432103      23.01665678        1       0.42109300       0.37339600       0.35601500 
H      12.54830500       7.95057707       3.38871250        1      -3.99837200       1.40688700      -1.16570800 
H      12.79277996       5.95777910      21.79351949        1      -0.07517200       0.35775500       0.54466600 
H      12.30147018      17.96919532       2.48001293        1      -1.15710900       1.24530400      -0.32697200 
H      15.68838046      18.47603296      22.80720096        1      -1.60923200      -0.28613400      -0.78254900 
H      19.52830697       6.92515117       4.37855439        1       1.93435900      -0.16875600       3.15077900 
H      18.45798800       6.21291426      21.41475431        1      -0.19410200      -1.59424500      -0.72301300 
H      17.98436935      19.46135688       2.42390202        1      -0.69148100      -2.22904600      -0.16765700 
H      20.01712033      19.14097038      22.10851898        1      -0.19305500       0.14761800      -0.02306600 
H      -0.74179456       4.68567667      16.57374118        1       1.67402900       0.03311300      -1.72617100 
H       1.80513536       5.22680821      34.19709960        1      -0.90630900      -0.39485600       0.85400400 
H       2.55562444      16.46597629      16.52721039        1      -0.19100600      -0.11713300      -0.79520000 
H       1.61063113      15.07910804      35.44914691        1      -0.12546500      -0.97217900       1.24189400 
H       4.78287654       4.62583924      16.55099928        1       0.11513000       0.09840800       0.61006600 
H       6.38740164       5.48296449      34.67120139        1       0.84342200       0.53604800      -1.61879700 
H       6.22642264      17.33581226      16.63038489        1       1.29823600       2.22476700       0.35948200 
H       7.11174198      17.18657769      34.44498347        1       0.57056300       1.12458900      -0.95766400 
H      11.04079560       5.98306708      16.40724689        1       2.13878500       3.46314400       1.19587000 
H      10.18141499       4.06820736      35.74385021        1       0.60497900       0.67603100       0.47955000 
H      11.87250666      15.51915698      16.70221401        1       0.82827600      -1.04175800       0.45901300 
H      10.51888223      14.66522854      35.52113535        1      -0.32729200      -0.10773900       0.85299600 
H      15.20903755       4.97412601      15.56827109        1       1.18694300      -1.13564800       0.06825600 
H      17.10426114       4.21762091      37.15690342        1       0.24534300       1.75347400      -0.36170800 
H      17.13521649      17.02205943      16.19835905        1       0.71244100       0.04656400      -0.09618200 
H      17.89481496      15.40612095      35.37824683        1      -3.66890700       0.21482800      -0.40365900 
H       3.41069400       0.10610130       6.97527710        1       0.64052600       0.70235500       0.31589400 
H       1.97204141       0.42707233      25.97690546        1      -1.54160600      -0.66637300      -0.97099600 
H       5.71548397      12.21664169       6.91394782        1       2.77966400       1.21259500       2.29781400 
H       2.74734050      10.42367805      26.10343537        1      -0.36803900      -0.84180400       1.31831800 