768
Lattice="19.9776580011 -0.192411721362 0.0882378051634 -0.214270733028 23.3576231579 -0.144489883192 0.141363334601 -0.237762153892 39.4371798296" Properties=species:S:1:pos:R:3:Z:I:1:forces:R:3 energy=-99811.1937739 stress="-3386.819487 2648.038353 -2232.613981 2648.038353 -655.718684 -240.553571 -2232.613981 -240.553571 1435.865149" pbc="T T T"
I       4.36952810       3.67264416      20.15638617       53      -0.35152100      -0.77035800      -0.21332200 
I       3.63214245       3.68674045      39.30262474       53      -0.20755000      -0.18677500       0.39633600 
I       3.32112000      15.63642155      19.87002218       53       0.81993900       0.63644900      -0.62958000 
I       3.86500635      14.99521184      39.81146175       53       0.31419300       0.59557300      -0.33829800 
I       8.50993385       3.26668917      19.81155675       53       0.28871000      -0.13217600       0.15072800 
I       9.07097081       4.10206580      39.35639002       53      -0.07254100      -0.35636100       0.56030900 
I       8.63170725      15.24810628      19.99480139       53       0.16769500       0.04870000      -0.03975300 
I       8.80494383      15.35695351      39.61452427       53      -0.30421300       0.07595000       0.03497500 
I      13.98245877       3.53011997      20.19649577       53      -0.25297400       0.31315200      -0.10079600 
I      13.86945519       4.04377270      39.13818582       53      -0.10367200      -0.35858000      -0.16528200 
I      13.73433980      14.90993548      19.53855747       53      -0.03394200      -0.27348600       0.19893500 
I      14.33791949      15.44002786      39.03464134       53      -0.80953500      -0.30199300       0.35344700 
I      18.82403793       3.04453809      19.34261161       53       0.16850400       0.00916900       0.34875300 
I      19.00489277       3.45604967      39.63889381       53      -0.14705700       0.16061800       0.44934400 
I      18.42588177      14.60366683      19.28667632       53       0.28785200       0.51812800       0.08864000 
I      18.79226580      15.92287841      40.00438424       53       0.23150700      -0.89269900      -0.41462500 
I       1.12904313       7.89009095      -0.00119696       53      -0.42458100      -0.68718500       0.26383400 
I       1.22397567       7.36785106      19.48606241       53       0.83957600      -0.31413300       0.22940800 
I       1.10455699      19.82146678       0.31987172       53       0.18390500       0.32961500      -0.42873300 
I       0.63573464      19.14918144      19.27067829       53       0.29965800      -0.36045700      -0.04618000 
I       5.86340437       7.43668053      -0.28013566       53      -0.09435300       0.34813700       0.50208100 
I       6.08155491       7.51054859      19.13813327       53       0.04076100       0.34811700       0.13056300 
I       6.03653984      19.48394709       0.07692754       53      -0.22721100       0.17429400      -0.12478300 
I       6.30210557      19.26506289      19.08073892       53      -0.11809600      -0.11063600       0.15003900 
I      11.50325536       7.98817481      -0.16288596       53      -0.00742300       0.21188300      -0.18293000 
I      11.34997606       7.78171219      19.97949472       53      -0.54245000       0.02417300      -0.18352900 
I      11.31825036      19.38430305       0.00128261       53      -0.15391100       0.03424700      -0.43955800 
I      10.91670762      18.98603236      19.55484648       53       0.12442600       0.29556000       0.00056600 
I      16.34850176       8.08718940       0.14613055       53       0.34919100       0.07924900      -0.31514600 
I      16.29704063       7.29143532      19.82500710       53      -0.09002800       0.36126300      -0.16017100 
I      15.98005710      20.21150010       0.05524085       53      -0.44557200       0.09549600      -0.10126400 
I      15.98515761      19.31117896      19.24774717       53       0.11431300      -0.05509300      -0.13158400 
I       3.86937836      10.06107136       9.72497152       53       0.20577700      -0.36332200      -0.19871000 
I       3.83791888       9.04757742      29.50353751       53      -0.06638300       0.15027200      -0.34539800 
I       3.66418597      21.29621228       9.81434024       53      -0.31691600       0.08929100      -0.12522800 
I       3.73868347      21.17088205      29.54729577       53       0.09741800      -0.36968500      -0.07727900 
I       8.65274386       9.61838201      10.00907469       53       0.35980000       0.44832500      -0.27276000 
I       8.35431532       8.84767746      29.45734301       53      -0.17229100       0.04066600      -0.42109700 
I       8.28823886      21.84498657       9.03844645       53       0.11351200      -0.09679500      -0.34229400 
I       8.64904463      21.21802174      29.74491428       53       0.05820600      -0.48276400      -0.29004800 
I      13.74349037       9.40726155       9.80194033       53       0.74766300       0.20904600       0.56480000 
I      13.64848250       8.51551624      29.77463507       53       0.13352400       0.26467400      -0.05999600 
I      13.61227542      21.34468720       9.81593035       53      -0.30264900       0.11675100       0.14289700 
I      13.53152585      20.83432509      29.25702411       53      -0.38144000       0.18285200       0.06128800 
I      18.14899648       9.42241964      10.06036763       53       0.34519700       0.21188900       0.37010900 
I      18.46252327       9.16548132      29.52326262       53       0.22706100      -0.28479900      -0.00807300 
I      18.49458742      21.62195840       9.56951085       53      -0.01318200      -0.55234400       0.05760500 
I      18.38279937      21.17445334      29.12522306       53       0.24383600      -0.37279100       0.15989100 
I       1.61578690       2.18150749       9.10494288       53       0.10277900       0.04070000       0.17081700 
I       1.27138467       1.09195587      30.36044090       53       0.13019700       0.28311700      -0.09990900 
I       1.07414486      13.74527962       9.53848476       53       0.67799200      -0.12555800       0.06589200 
I       1.10885883      13.01767295      29.30513375       53       0.09465400      -0.00228400      -0.11086700 
I       6.12637290       1.86953263       9.17879443       53       0.19960400       0.09686900       0.22448500 
I       6.54962607       1.41609331      29.10307616       53      -0.23535600       0.12572900       0.28227200 
I       6.32400895      13.76532977       9.87593738       53       0.12530600       0.04850500      -0.10164200 
I       6.21288234      12.85311124      28.76469383       53      -0.09139100       0.16321200       0.25239800 
I      11.66652620       1.70916751       9.88082222       53      -0.32717800       0.14605500      -0.13759200 
I      11.28162950       1.81959556      29.79899738       53       0.35251600      -0.62586600      -0.25537000 
I      11.06583677      13.49711731      10.12779996       53       0.49350900      -0.08786200      -0.04458600 
I      11.20469577      12.72418703      29.57776776       53       0.07925200       0.16908600      -0.10698100 
I      15.85265798       2.11343025       9.53739821       53       0.60692800      -0.25387600      -0.11017800 
I      17.04595943       1.25488929      29.81547419       53      -0.66646600       0.31914800       0.14902200 
I      15.69289032      13.70794368       9.88313566       53      -0.52046800       0.18309400       0.62836400 
I      15.78462202      12.91674012      29.49607713       53       0.20972700       0.08523600       0.03102900 
I       1.87662360       0.33157306      17.63062608       53      -0.24402900      -0.05380300      -0.03678700 
I       1.38235135       0.20738717      37.09740913       53       0.41006200       0.10414300       0.72295900 
I       1.02070874      11.62593679      16.86677414       53       0.38845600       0.11054000       0.34433000 
I       1.44583164      12.22295898      37.48439743       53      -0.11065600      -0.25251600       0.26083100 
I       6.46431772       0.20461971      17.73200364       53       0.19828500       0.30493600      -0.20355100 
I       6.32704573       0.17123890      37.35413902       53       0.18215800      -0.11525400      -0.02858700 
I       5.97073992      12.31254131      17.68889751       53       0.08876000      -0.07828800       0.32940100 
I       6.27780104      11.72469652      37.62492392       53       0.08729100      -0.00614400       0.43640100 
I      11.33649681       0.11930517      17.94717519       53       0.02770700       0.27743100       0.22908800 
I      10.76290826       0.19389554      37.07026904       53       0.19657200      -0.20193700      -0.08149100 
I      11.48595512      11.86173325      17.53730944       53      -0.16044700      -0.15449700       0.09953300 
I      11.07799832      12.01756848      37.47211928       53      -0.28448500       0.17753000       0.11808900 
I      15.72810785       0.41856747      17.69043499       53       0.00485500      -0.46169400       0.19184100 
I      16.22379272       0.68920791      37.66711066       53      -0.14616800      -0.09306200      -0.06465100 
I      16.60094838      11.44579703      18.10103234       53      -0.35147700      -0.17663100      -0.64314100 
I      16.90833763      12.10668956      37.22212747       53      -0.01767300      -0.26150400       0.24293600 
I       3.58919420      11.44923314       2.64935576       53      -0.22007600      -0.02033300      -0.07872500 
I       3.66273826      11.21294036      21.24443437       53      -0.04556600      -0.19765500       0.36298000 
I       3.66173426      23.15498153       1.71205261       53       0.25509900       0.48786500       0.53284800 
I       3.25496616      22.38831158      21.13137507       53       0.14288700       0.23739200       0.17495300 
I       8.75507590      11.14922584       2.05970933       53       0.05362000       0.33094100       0.05660500 
I       8.05484046      10.99631182      22.14179509       53       0.09059100       0.29465400      -0.47963100 
I       8.51495387      23.19826205       1.62075223       53       0.39095500      -0.21016500       0.14815500 
I       8.92754065      22.57154899      21.63201289       53      -0.21040500      -0.21810900       0.20868000 
I      13.73633026      11.49826114       2.23163752       53      -0.03787100       0.21684600      -0.19120800 
I      13.40480364      10.82092689      22.09412090       53       0.12073100       0.36046500      -0.26751400 
I      13.08776955      23.09489092       1.89665002       53       0.06417600       0.26002800      -0.05556200 
I      13.58748385      23.00111201      21.74757239       53      -0.08811700      -0.39587300       0.10190400 
I      18.56078151      11.33094848       2.25135025       53       0.20325300       0.15583700      -0.18503300 
I      19.15182714      10.95504860      21.46865021       53      -0.37241100      -0.40266700       0.23956200 
I      17.67834567      23.40112036       2.40628879       53       0.23898700       0.02448700       0.06937300 
I      18.23469900      22.13744475      21.80521130       53       0.31185300       0.56255000      -0.20677800 
I       1.36790422       6.40842164      11.44225877       53       0.07490500      -0.28205400      -0.00404100 
I       1.52878011       5.87341139      31.59214007       53       0.24421400      -0.15121500      -0.14268200 
I       1.01902680      17.54290524      11.84479416       53       0.51853600       0.49475000       0.29775200 
I       1.14722355      16.86783077      32.00457517       53       0.13791900       0.05788800      -0.40651600 
I       6.63178413       6.41221064      11.73948210       53      -0.17008700      -0.55870200       0.03867700 
I       6.30356772       5.71999588      30.98491687       53      -0.28019800      -0.36202200       0.81408700 
I       6.49425623      17.92306052      11.83332912       53      -0.28920200      -0.18221900      -0.02406800 
I       6.13086151      17.24767237      31.35800182       53      -0.02098800      -0.08345200      -0.09080100 
I      11.17107763       5.81680745      12.15663178       53      -0.23076700      -0.16451400      -0.30374400 
I      11.70789983       5.38303753      31.84036326       53      -0.04006400      -0.08450300      -0.04203100 
I      10.91811612      18.11210218      11.97119443       53       0.38510400      -0.48725000       0.23066200 
I      10.65179402      17.17031248      31.39655846       53       0.30219400      -0.01294200       0.22742900 
I      16.87494857       5.79404143      11.79555360       53      -0.49357400       0.16344900      -0.24528800 
I      16.50533893       5.62416149      31.85938568       53      -0.08208800      -0.25163500       0.13331400 
I      16.66398599      17.63094389      11.85784724       53      -0.67938700       0.03427100       0.05699600 
I      16.18679110      17.06613856      31.83040887       53      -0.01344900       0.14159200      -0.50391500 
I       4.25008157       5.68140003       7.66790273       53      -0.33419000      -0.22125300       0.01337900 
I       3.30285188       4.44090628      27.40135045       53       0.26360100       0.60458200       0.30571500 
I       3.66339453      17.27733331       7.84381700       53      -0.21421900       0.08012300      -0.04656700 
I       3.40186957      17.02001733      27.54673599       53       0.36356700      -0.36388500       0.01210300 
I       8.98424159       5.48074681       7.84273251       53      -0.23880000       0.21967000      -0.90018100 
I       8.53330145       4.96937554      27.07757313       53       0.02697700      -0.15105300      -0.07714000 
I       8.50186777      17.33633531       7.78049872       53       0.16522400      -0.34715900       0.09481100 
I       8.41363306      16.43590169      27.22013239       53       0.18724500       0.49745100       0.37944400 
I      13.50709853       5.25607695       7.60464429       53       0.70254200      -0.55883900      -0.15145800 
I      13.41794959       4.78102008      27.76136375       53       0.32862000      -0.11271700       0.09040500 
I      13.53390120      17.45898475       7.78318053       53      -0.17489000      -0.55483300       0.38259800 
I      13.55795499      16.71064483      27.64424820       53      -0.09393300      -0.01903700      -0.13648500 
I      19.29720340       5.42484557       7.21123677       53      -0.25996800       0.26792100       0.23626200 
I      18.97537423       4.61303258      27.93512246       53      -0.05345600       0.20482900       0.10383700 
I      18.92469835      16.86616844       7.66993963       53      -0.23137900       0.25521000       0.39664500 
I      18.41355718      16.50872551      27.40477108       53       0.12499100       0.14479700       0.49085600 
I       1.13846199       3.31436748       4.07762816       53       0.34130600       0.32998600      -0.22834500 
I       2.00126454       2.91507008      24.12627017       53      -0.52135000      -0.17197600      -0.71860900 
I       0.64985261      15.45786157       4.30986468       53       0.09321200      -0.01834900       0.19084700 
I       1.75557458      14.76015420      23.65144340       53       0.13296700      -0.27093100       0.07591300 
I       6.15480592       3.34940753       3.84022510       53      -0.06385100       0.45083700       0.14811400 
I       6.28198422       2.47154388      24.02763117       53       0.17007300       0.31168800      -0.20827900 
I       6.26338487      14.82671460       4.49830785       53       0.15902900       0.01844600      -0.59908600 
I       6.35218813      15.24544510      23.99752344       53      -0.26901300      -0.52670100      -0.33476600 
I      11.46893556       3.33000332       3.43409263       53       0.02979600       0.16132900       0.08131700 
I      11.34836738       3.22898278      23.92832869       53       0.02425200      -0.40118500       0.41031000 
I      10.78140236      15.57973093       4.32789135       53       0.34018500      -0.24377100      -0.33655200 
I      11.49232173      14.88971301      23.64539874       53      -0.28895300      -0.27512900      -0.20460000 
I      15.79904232       4.23452105       4.38864339       53       0.40452600      -0.17593600       0.39292800 
I      16.00872745       2.95857451      24.20300991       53       0.16669600      -0.26868500       0.00089000 
I      15.76176003      15.16618761       3.76719078       53       0.10944400       0.09040500       0.02400000 
I      16.74358090      14.83347434      23.68709224       53      -0.81132200      -0.68257200       0.07289300 
I       3.62934507       7.85917940      15.41609790       53       0.07053900       0.25446600       0.11377900 
I       4.07693888       8.92193763      35.48747600       53      -0.57557300      -0.16964900       0.54500400 
I       3.83226014      20.73659620      14.66499981       53      -0.36949000      -0.38239100      -0.22945800 
I       3.49993485      19.62085483      35.69719828       53       0.20086300      -0.26343000      -0.10634400 
I       8.97092642       8.08002517      15.91779957       53      -0.37612400       0.10907800       0.40775900 
I       8.08254188       8.36736633      35.39696500       53       0.54978100      -0.47091300      -0.17555000 
I       8.55450420      20.02348000      15.27049051       53       0.10722900       0.54126800       0.15634400 
I       9.07324298      19.31216439      35.43306993       53      -0.60097400       0.29354700       0.14730200 
I      13.24659306       8.02284338      15.88106933       53       0.23191500       0.18171800      -0.15786400 
I      13.82402634       8.97046208      35.46504431       53      -0.33497300      -0.46003200      -0.18240400 
I      12.57607737      20.42708130      15.44584758       53       0.50098100      -0.29201200      -0.22639000 
I      14.41735549      19.89631718      35.51906033       53       0.04207600       0.33715700      -0.11605100 
I      17.82950759       8.09126630      15.43265210       53       0.23556000       0.31882300      -0.00043600 
I      18.99758305       8.24243750      35.39278698       53      -0.42995500      -0.15929900       0.53350000 
I      18.68518202      20.01242563      14.93391807       53       0.47564300      -0.07737100       0.54936600 
I      18.41762376      20.15210084      35.84754193       53       0.24949300      -0.04031000      -0.50365600 
I       0.79431670      10.62732749       6.28705171       53       0.07350700      -0.19466700      -0.05275000 
I       0.81170773       8.47810394      25.02979008       53       0.20251100      -0.17256400       0.52621100 
I       0.74548372      20.73775498       5.77664213       53       0.23746900      -0.26974300      -0.01607200 
I       0.66454945      20.03847608      25.63325524       53       0.38853300       0.03576900       0.10708100 
I       6.55512178       8.82306956       5.56903518       53       0.06208100      -0.07688400      -0.39417300 
I       5.78525717       9.01568972      25.08186414       53       0.25921900      -0.02110900       0.29741600 
I       6.17379945      20.36731366       5.48534170       53      -0.12614400       0.10735000      -0.06602600 
I       5.99689355      20.94184431      25.14107251       53      -0.08822100      -0.19165000       0.50193500 
I      11.90009899       9.02045177       6.19952073       53      -0.33302100       0.05899400      -0.50444400 
I      11.39269008       8.41071495      26.11573534       53      -0.23101700       0.29149000      -0.10935800 
I      11.43686831      20.37554381       5.85090746       53      -0.22700900       0.63336200      -0.61193600 
I      10.86733808      19.78490164      25.48496293       53       0.31244200       0.12610600      -0.30248000 
I      16.33891162       9.44451804       6.08533463       53      -0.10217100      -0.19317600       0.15220000 
I      16.26720324       8.12375557      25.66207520       53       0.00578000       0.05263200       0.06510800 
I      15.75247635      20.83821419       6.02296050       53       0.24611400      -0.12244600      -0.09773000 
I      15.83268212      20.01395486      25.60415254       53       0.28764400       0.13563300       0.12203100 
I       3.53903528       2.81171959      13.56935503       53      -0.02905900      -0.21407700       0.59695200 
I       3.45987582       2.61824815      33.72509112       53       0.26366100      -0.10812300       0.45441000 
I       3.69600763      14.12825603      13.58118329       53      -0.21780300       0.10802600       0.47029600 
I       3.75097400      13.67361768      33.99142972       53      -0.00039000       0.08951900      -0.39948000 
I       8.57839082       2.07512229      13.33683784       53      -0.19155000       0.38031200      -0.29479900 
I       8.63979190       1.98749947      33.58269489       53      -0.08190900      -0.00878100      -0.45306400 
I       8.22688834      13.71260667      13.64711838       53       0.65842200       0.48326300       0.89460500 
I       9.08537357      13.65351800      33.32610844       53       0.02646700      -0.34012600       0.61589600 
I      13.64176197       1.95007376      13.60396788       53       0.28502000      -0.06280000       0.23560900 
I      14.26033568       2.13766771      33.99678510       53      -0.07425000      -0.29259200      -0.09822000 
I      13.34186095      14.71996309      13.91486135       53      -0.33845800      -0.34883700       0.04419600 
I      14.14491341      14.02759974      33.66340009       53      -0.43694500      -0.15454800      -0.16760900 
I      18.68061396       2.58114437      13.49984865       53       0.05103000      -0.04171000       0.09179700 
I      18.87910440       1.81341263      33.92589500       53      -0.07992500      -0.22332700       0.07706400 
I      18.62596334      13.43740023      13.81015396       53       0.12201200       0.29175700       0.53779600 
I      19.23314217      13.05106820      33.40138397       53      -0.51542300       0.03414200      -0.10808200 
H       4.66706203      -0.07285374       6.34416539        1       0.24510200      -0.10852500      -1.22378600 
H       3.17615650       0.03308363      27.82126553        1       0.90446300      -1.90233800       2.77086800 
H       3.74151800      12.16114722       7.53240554        1       0.56444500       1.22868400      -0.96624400 
H       2.50020701      12.83599055      26.17512841        1      -0.40802200       1.67972300       1.40402000 
H       9.10994123      -0.13213434       5.10528444        1      -0.13596900       1.45643100       0.98933700 
H      10.07494581      -0.33251309      27.34655330        1      -1.16823200       0.19965800      -0.51893600 
H      10.09456464      11.24641920       5.96984117        1      -0.77924600       1.29667400       0.00153800 
H      10.08869024      11.59150452      24.67566770        1      -0.78383800      -0.44726800      -1.20930800 
H      13.99542105       2.40422300       7.09034665        1       0.73483500      -1.49853100      -0.41744600 
H      13.01635113       0.54826248      27.41833184        1       0.99817800       0.52279600       0.37202700 
H      13.67579595      13.10922716       5.35086813        1      -0.28937500       0.13499300       0.84496800 
H      15.22411853      11.80907205      25.41881734        1      -0.56474800       0.13934200       0.41898500 
H      19.52422694       0.53021930       7.32570250        1       0.42321500      -0.43036000       0.95818900 
H      19.78563013       0.06552235      26.72610263        1       2.04795100      -1.97549900       2.53438100 
H      18.16246025      14.10815428       6.41770739        1      -1.08788700      -1.46776900       1.59853600 
H      19.88231684      13.12087588      26.11104242        1      -0.00103400      -0.58304300      -1.27709500 
H       2.21042755      10.86100243      11.84602827        1      -1.18827600       0.02020300       0.45153900 
H       1.21999990       8.61507050      32.38748966        1       1.40193200       1.06233900      -1.22415900 
H      -0.06130099      22.49182304      12.03639381        1       1.07409500      -0.18948300       0.06509200 
H       0.94274520      21.58581736      31.86287648        1       0.21755300      -0.14559600       0.78972500 
H       5.62063045       9.89995196      14.25158341        1      -0.14634500       1.96732400       1.31580500 
H       4.99060305      10.23160137      32.39892272        1      -1.07859500      -0.85701800       0.14603300 
H       6.96435500      22.96733703      14.17761009        1      -0.41860500       1.27697600       1.68884200 
H       6.43067070      21.05281821      34.18488776        1       1.89369700      -1.19347700       0.13421700 
H       9.51043456       9.74740218      12.80048410        1       2.33577100      -1.77891800      -0.05999100 
H      10.13156007       9.20718927      33.14428880        1      -1.22312100      -0.68839800       1.41576500 
H       9.18185391      21.51156235      12.38227573        1      -2.01942400      -0.54366400       1.04767300 
H       9.95111282      21.71919097      33.13552105        1       2.85600300       0.01674500       0.16879100 
H      14.80239975      11.12426608      12.68484618        1      -0.88630700      -0.88077400      -0.64432000 
H      16.54671669      10.54011123      31.40967655        1      -0.55563600       0.40956800       0.53100200 
H      16.76990273      21.00186166      12.36465252        1      -1.94148700       0.76074100       0.54779500 
H      16.25474967      21.53701224      31.30857553        1       1.62186000      -0.87613200      -2.14301300 
H       4.06732087       8.24239623       3.76575546        1      -1.91003600       0.64420800       0.60514100 
H       3.83250056       5.40474382      22.04699772        1       0.19812300      -0.24287900      -0.58580700 
H       4.26270539      17.90437243       3.75786685        1       0.39216500       0.02005600       0.21844900 
H       3.76630131      18.42264275      21.84436745        1      -0.85796000       1.01416300       1.40496300 
H       9.80558900       6.43335457       2.10598638        1       0.80160800      -0.78152100      -0.72716700 
H       7.83797768       6.46341897      21.45213419        1      -0.20080800      -0.35217400       1.22133200 
H       9.61101759      20.21200262       2.97358091        1      -0.33693300      -1.24650400       1.05227000 
H       7.72977537      19.39255797      22.23273225        1       0.41309200      -1.37441800       1.26212800 
H      13.38392180       7.82935233       3.48759375        1       0.16966100       3.17134800       0.85797600 
H      11.92830293       6.92851835      22.94436670        1       1.71373600       0.20956600      -0.78310600 
H      13.27194802      20.13304127       2.96944004        1       1.42341500      -1.91118200       0.01601100 
H      15.12040895      18.71396072      22.80385259        1      -1.32962000      -0.10150600      -0.18865300 
H      19.19290050       7.49790000       4.88343467        1       0.48196100      -0.37182700       4.48732100 
H      18.10547967       5.34346966      22.38592488        1       0.65809600       0.52471900       0.62531000 
H      19.15288274      19.70105545       2.67902185        1       0.62678500       0.70041800      -0.47588700 
H      19.64927031      18.63788034      22.91139657        1      -0.17739200       0.70679800      -0.59409900 
H       0.04649374       5.01735000      15.49987289        1       0.84505900       1.31943000       1.07033500 
H      -0.36007212       5.63296742      36.67383506        1       1.53656900      -1.95360300      -0.60450800 
H       1.96024794      17.69673143      16.85304932        1       1.28533600       2.17412700       0.55314300 
H       1.58529118      16.87408696      35.37770525        1       1.46812600       1.37524700      -1.15954000 
H       7.23477565       3.94859354      16.97470198        1      -0.09902400       0.60137400       1.46178300 
H       7.83111166       4.94753201      37.05335782        1      -0.90656400      -0.42315000       0.35162900 
H       6.90646948      17.91694982      16.58954524        1      -0.59873200       0.42388700      -0.19298500 
H       7.25672547      16.32485040      35.33865023        1       1.04098000      -0.72081700      -0.95575600 
H      10.16054823       4.48673550      16.96204720        1       0.21421400      -0.57195100      -0.20390300 
H      12.09932617       3.62901900      35.67206826        1      -1.68373000       0.34850800       1.17587800 
H      10.31655372      16.36295612      17.80086407        1      -1.14597800       0.22481700      -1.94603300 
H      10.69759435      15.96099238      35.71287126        1      -1.77188500      -0.08274800       0.29621200 
H      16.37926163       3.98141405      15.58980089        1       0.01206700       0.95267500      -0.49473900 
H      16.38122630       4.37381137      37.27083249        1      -0.97641600      -0.60654000       0.67053000 
H      16.48877854      16.62804823      17.50972771        1      -1.54767200      -0.12466700      -1.33929300 
H      17.82169328      16.92561517      35.46034829        1      -1.36545900       0.18896700       1.05509900 
H       3.00840530       0.14349310       5.24724832        1       0.85088600      -0.08223200      -0.26758600 
H       1.98446889       0.04913221      26.45274839        1       0.24161000      -0.31268200       0.18757200 
H       5.45669303      12.86433483       7.05512293        1      -3.31489200       0.99643400      -1.42202100 
H       2.91824410      10.95088916      26.31817059        1      -0.01636600       1.33232900       0.19450300 