768
Lattice="19.897191955 0.110020930684 0.131611887877 0.119226243089 22.4865794016 0.325441770117 0.217568609619 0.57273429472 39.4592593185" Properties=species:S:1:pos:R:3:Z:I:1:forces:R:3 energy=-99811.0255422 stress="-3072.763414 -252.235617 25.670321 -252.235617 4292.404774 -1220.05728 25.670321 -1220.05728 3754.33188" pbc="T T T"
I       3.94701288       3.97424517      20.14424164       53      -0.18842100       0.11503100      -0.24367000 
I       3.44969031       4.55478388      39.40171948       53       0.25472100      -0.21498100      -0.13623500 
I       3.49461289      15.20679960      19.47376493       53       0.64813400      -0.02514400      -0.17404100 
I       3.80747516      16.04729094      39.56900374       53       0.25621500       0.24801900      -0.06705800 
I       8.84926006       3.88921388      20.56851655       53       0.07008600       0.32850000      -0.19320800 
I       8.27545852       5.21755311      39.01912254       53       0.08645300      -0.03893100       0.20147100 
I       8.52791895      15.62514441      20.07782300       53       0.45971800       0.33896500      -0.15666600 
I       8.65399867      16.32039752      40.21647840       53      -0.23820900      -0.17659200      -0.15970900 
I      13.55740596       4.23949836      20.30580498       53       0.06601000      -0.12633000      -0.36129200 
I      13.70862429       4.89920868      39.46123568       53       0.47878900       0.09381700      -0.26799200 
I      14.23695229      15.64178989      20.00190315       53      -0.08818600      -0.18031600       0.20752800 
I      13.68604158      16.27951642      39.01958270       53       0.06278600      -0.40162200       0.21518500 
I      18.81197929       3.89920178      20.45141155       53      -0.05618300       0.90327700      -0.42099600 
I      19.42640481       4.59876777      38.83780380       53      -0.52912600      -0.20590900       0.30333600 
I      18.85721816      15.37672750      20.29147869       53      -0.39631200       0.23303900      -0.36174300 
I      18.94210355      16.00630781      39.13986191       53       0.10898600      -0.08480300       0.22752000 
I       1.39118268       8.07708005       0.48949570       53      -0.21064900       0.20164300      -0.31172000 
I       1.09029895       8.17171969      19.40920122       53      -0.23411200      -0.45744700       0.74582700 
I       1.21350036      19.25025297       0.56871832       53       0.60183200      -0.40903100       0.31218000 
I       1.71269419      18.54449466      19.44294825       53      -0.45151600       0.85126100       0.07257200 
I       6.17731356       8.89656202       1.23447504       53      -0.31698300      -0.14923100      -0.50505600 
I       6.17664729       7.90366470      19.60458913       53      -0.09278700      -0.31893100       0.37770400 
I       6.70322442      19.18044584       0.86595135       53      -0.39537300       0.46574300       0.06372400 
I       5.95368017      18.75071529      19.84564139       53       0.14557300       0.53031100      -0.61142000 
I      11.59103410       7.70965422       0.09672720       53      -0.52827000       0.44707000      -0.11382100 
I      10.63166138       7.36066963      19.49635274       53       0.25595200       0.26941000      -0.25745100 
I      11.31940392      19.05796172       0.62314516       53      -0.67059400      -0.03641900       0.15638400 
I      11.65622020      19.27849538      19.91184679       53       0.04227700       0.01658700      -0.06603200 
I      16.20655652       7.79872394       0.28706862       53       0.13556500      -0.00559200      -0.37202000 
I      16.17551843       8.06792984      20.17524096       53      -0.17896700      -0.05739100      -0.07310100 
I      15.87475000      18.47813928       0.35472389       53       0.40948500       0.72747400      -0.10271500 
I      16.45636923      19.14333074      20.20474142       53      -0.04535700       0.10028700      -0.21456500 
I       4.44222338       9.47589778       9.52542505       53      -0.25285300      -0.18853700       0.13822200 
I       4.31964437       9.50541661      29.06201609       53      -0.20463400      -0.00729200       0.12701600 
I       3.93755963      20.76957335       9.20835806       53       0.08272900       0.13112100       0.33267900 
I       3.96997922      21.01341822      30.45054084       53       0.17403000      -0.16468500      -0.46429600 
I       8.79133149       9.63516029      10.67554017       53       0.18064200      -0.51959400      -0.36887200 
I       9.42973245       9.07484327      29.41493299       53      -0.37491200       0.50186100      -0.05903800 
I       8.96027274      20.45243595       9.81275793       53       0.13024400       0.37681000       0.02160900 
I       9.62343582      20.50373960      29.72015307       53      -0.45164400       0.19722600      -0.03149200 
I      13.68214601       9.77944250       9.88244364       53      -0.10432500      -0.17741300       0.33103600 
I      13.81624747       9.47698748      29.54497053       53       0.37775700      -0.17602100       0.21729500 
I      13.71882135      20.80757103      10.65610719       53       0.27412500      -0.38566100      -0.49777800 
I      14.31284153      20.41145282      29.55491149       53      -0.25934200       0.07615700       0.16993200 
I      18.81752472       9.80520247      10.73438907       53       0.44560500      -0.45528900      -0.70017600 
I      19.20766080       9.17907798      30.03113285       53      -0.29736900      -0.02377200       0.02395700 
I      18.74483928      20.48762163       9.79619918       53       0.41332400       0.99851200       0.50304700 
I      18.78287675      20.18356982      29.81032983       53      -0.31455300       0.54352300       0.28301400 
I       0.90872208       1.94758066       9.84599276       53       0.28843100      -0.02646400      -0.11479700 
I       1.68074802       2.05488448      29.89885163       53      -0.19324700      -0.13811400       0.35121600 
I       1.10680158      13.07239864       9.80112324       53       0.26777800       0.38841300       0.09631800 
I       1.53980634      13.10835568      29.36699843       53       0.13642000       0.12368600      -0.08759700 
I       6.93924243       1.92437250      10.13131153       53      -0.31045900      -0.28216000      -0.13835500 
I       6.73962836       2.33383647      29.32856304       53      -0.42028500      -0.71182400      -0.20232000 
I       6.25067547      13.28705424      10.23566663       53       0.20313100       0.14857700      -0.09913900 
I       6.76393438      13.09420999      30.27887839       53       0.05501800       0.12652900      -0.27046300 
I      11.57062263       1.89932878      10.19611705       53      -0.38125500      -0.21286300      -0.21131700 
I      11.42554560       2.17929802      29.73507523       53       0.10958300      -0.13995500       0.11890100 
I      10.98944214      13.37974405      10.14692648       53       0.05463100       0.13234300       0.33937700 
I      11.51191453      13.33083304      29.46482962       53      -0.00782300      -0.06794100       0.10509700 
I      16.39025872       2.04437214       9.89580572       53       0.40150100      -0.07990300      -0.11584600 
I      16.27223441       1.92256551      30.19922010       53       0.05427300      -0.19653000       0.15492100 
I      15.87639373      13.18884044      11.46779801       53       0.48464800      -0.13390000      -0.80150200 
I      16.78692279      13.07715945      29.22481503       53      -0.01051700       0.01988900       0.25825500 
I       0.88279579       0.89375298      17.55176671       53       0.43861500      -0.17554400       0.49005400 
I       1.37271492       0.89829340      37.56392508       53       0.01112100      -0.08164700       0.09688400 
I       0.91649588      11.71095314      17.64404023       53       0.36778900       0.55556500      -0.15549700 
I       1.29995500      12.26041907      37.62685526       53       0.33138900       0.31629300       0.08370800 
I       6.32831557       0.75416731      18.13097493       53      -0.07311400       0.05237200      -0.07311100 
I       6.23602982       1.49250948      37.83003228       53       0.12779600      -0.44379900      -0.30234900 
I       6.29237078      12.42115391      17.48493076       53       0.09166300      -0.29195700       0.21123800 
I       6.75687072      12.52921685      37.74882208       53      -0.01895200       0.32819400      -0.23767700 
I      10.95686337       0.65403530      18.02967262       53       0.08360300      -0.04513000       0.30940000 
I      11.26827169       1.71596227      37.95228989       53       0.20843300      -0.03726100      -0.40391200 
I      11.35091135      11.87670896      17.81939520       53      -0.10097100      -0.22229800       0.23516200 
I      11.36407652      12.98871213      37.27980315       53      -0.04559500      -0.49689900       0.50901500 
I      16.53358998       1.19893021      18.10240805       53      -0.08543100      -0.43350700      -0.34010800 
I      16.46744989       0.94640243      37.54546038       53       0.01578100      -0.03796600       0.01912900 
I      15.53830002      12.15603744      18.20913336       53       0.60181500      -0.26222600      -0.03833400 
I      16.26701752      12.52038803      37.90159027       53       0.53672300       0.15534800      -0.32812200 
I       3.45077899      11.42040626       2.82128439       53      -0.20223000       0.44294700      -0.97176800 
I       4.15018275      11.28672414      21.58422207       53      -0.33951800      -0.22263400       0.01010400 
I       3.69748994      22.47664864       2.19471809       53       0.40274000       0.18088200       0.38859000 
I       3.98319745      22.45596373      22.12138909       53      -0.08999200      -0.46417100       0.21754900 
I       8.94044490      11.58787621       2.36569080       53       0.06928500       0.28055200      -0.09470400 
I       9.10538548      11.34133771      21.38646396       53      -0.18622100       0.10032000       0.55027300 
I       8.62439210      23.13014624       2.65705802       53       0.19895000      -0.08959800      -0.35276200 
I       9.00959799      22.38491386      22.42919874       53      -0.06403800       0.02617600       0.41228900 
I      13.78611747      11.85882380       1.95320261       53      -0.25857600      -0.02871400       0.05476700 
I      13.52524451      11.58772725      21.86720023       53       0.30163100      -0.47014000       0.29031600 
I      13.64006910      23.32974704       2.45079658       53       0.03673700      -0.14438200       0.01392800 
I      14.03625362      22.31179784      22.15481982       53       0.00619500       0.11918000       0.27946700 
I      18.33485087      11.39624410       2.28000855       53       0.04046800       0.24065100      -0.11055000 
I      19.09380449      11.46731744      21.87269975       53      -0.78209100      -0.77027200       0.22784600 
I      18.19226749      22.66768897       2.74399323       53       0.10771600      -0.21947900      -0.07289700 
I      18.70771193      22.25613641      22.22121296       53       0.21609500       0.44487900       0.10707300 
I       1.41345929       6.16554520      12.14669337       53      -0.50309700       0.64491900       0.18636500 
I       1.23042132       5.85828245      32.21236948       53       0.40001600       0.23369700      -0.43459200 
I       1.45179674      17.32343681      11.82762961       53      -0.47686800       0.14954800       0.10004300 
I       1.47672719      17.04826204      31.49062278       53      -0.24763700       0.17938000       0.08816100 
I       6.18874418       5.89654745      12.12458409       53      -0.12876200       0.35571200      -0.80927100 
I       6.74150370       6.15665517      31.43753358       53      -0.24904600      -0.08919500       0.29225300 
I       6.06983220      17.64487179      11.21018700       53      -0.22693000      -0.08041800       0.60973000 
I       6.53006823      17.30955742      32.15309918       53       0.08655200       0.18823100      -0.14145400 
I      12.05640029       5.75594859      12.07328248       53      -1.12142700       1.10041900       0.39514500 
I      11.57148480       6.42203590      31.62986767       53      -0.02220500      -0.28514900      -0.35033300 
I      11.19005510      17.56689599      12.18442678       53      -0.05828800      -0.08666200      -0.04300200 
I      11.95786406      17.21104874      31.31361591       53       0.13053500       0.09340800       0.03692400 
I      16.12168848       5.84794662      12.20884810       53       0.16316700       0.42160300       0.29122500 
I      16.39693568       5.88394753      31.97919714       53       0.05796700       0.53211500       0.08237000 
I      15.89732250      17.68815267      12.48943157       53       0.23864600      -0.62031800       0.16698700 
I      16.55443203      17.10255420      31.28012192       53      -0.05200700      -0.00478500       0.16160700 
I       4.04034752       5.34862117       8.15447324       53      -0.07272400       0.00620400      -0.42287500 
I       4.05916321       5.17593127      27.68325374       53       0.23073000       0.12483200      -0.03815400 
I       3.95754358      16.83667964       7.56050204       53      -0.13044300      -0.24840000      -0.13566800 
I       4.33590825      16.77009468      27.62184996       53      -0.08456200       0.04736600       0.14880700 
I       9.37897467       4.83333692       8.24277976       53      -0.17291300       0.65631600      -0.15095900 
I       9.22734924       5.27720909      27.59111593       53      -0.08658900      -0.17168200      -0.06815200 
I       9.24682712      16.82306145       7.78110916       53      -0.42470600      -0.48312100      -0.04767700 
I       8.83083413      16.89827830      27.79323386       53      -0.08781800      -0.17672900      -0.06526800 
I      13.69286445       5.27776822       8.50699936       53       0.13209900       0.25566800      -0.42058600 
I      14.39986754       4.94912775      27.89352401       53       0.01088700       0.25672900      -0.03821000 
I      14.13756920      16.35247327       8.72190392       53      -0.19431600      -0.24709000      -0.13431300 
I      13.98032487      16.20828494      27.70453554       53       0.18118700       0.00539400      -0.40748300 
I      18.94631134       5.54306324       7.83530847       53       0.03951800       0.75372800       0.67695100 
I      18.85044121       5.20144025      28.04363937       53       0.17892100       0.12268600      -0.20827700 
I      18.64747438      16.67884863       8.10011782       53      -0.04067300      -0.18086400       0.24395700 
I      19.05047973      16.74687632      27.24371487       53       0.13314200      -0.37155100       0.16750500 
I       1.68671382       3.81938431       3.74211050       53      -0.56167500      -0.39209200       0.03538600 
I       1.11996879       3.11156395      23.82106197       53       0.25170200       0.30242000       0.26976900 
I       1.26853429      14.92122371       4.36173761       53       0.07348000      -0.26607700      -0.01711400 
I       1.43609404      14.89076210      23.77923708       53      -0.17309400      -0.23202700       0.13968000 
I       5.97971156       3.81246757       4.01595579       53       0.15176600       0.92874900       0.32368900 
I       5.72841326       3.10518696      24.16280129       53       0.37751800       0.36583200       0.26027000 
I       6.04821165      14.57266050       4.45507735       53      -0.06311100       0.22960900      -0.38482500 
I       5.99477350      14.31113351      24.38504295       53       0.26856700       0.29582900      -0.43937200 
I      11.61971729       4.48534000       3.83114246       53       0.03884400       0.53173800       1.17492700 
I      11.63191622       3.49656782      24.01361135       53      -0.03047000      -0.14274900       0.12480800 
I      10.82617590      15.23765300       4.22754125       53       0.27799800      -0.37583900      -0.19521500 
I      10.88747662      14.94799074      24.10539817       53       0.46714700      -0.37975000      -0.26787000 
I      16.42813804       4.11413593       3.59381437       53      -0.26392200      -0.57153000      -0.01432300 
I      16.83379316       3.12580147      24.20383135       53      -0.60278200      -0.30459500       0.15437900 
I      16.03056384      14.77496107       4.47013113       53       0.21303300       0.04454900      -0.05524100 
I      16.43600367      14.59389231      24.53780808       53       0.34082700      -0.08330400      -0.52935600 
I       3.82636941       7.85455984      15.98841653       53      -0.28801100       0.28978100      -0.17984200 
I       3.92740848       9.07974080      35.89741357       53      -0.00904700      -0.22830800      -0.29025700 
I       3.97240860      20.01383271      15.82290252       53      -0.05370900       0.14895700       0.07124500 
I       4.07491183      19.67199749      36.14675081       53      -0.36434600      -0.01556200      -0.34840200 
I       8.07339977       8.39810385      15.63729131       53       0.33689900       0.31620100      -0.17537700 
I       8.68648867       9.21987541      35.94735917       53      -0.36210100      -0.84879500       0.25401400 
I       9.17327747      20.10272693      16.57101322       53      -0.11571000      -0.09848800      -0.62854800 
I       8.84814077      20.62293625      36.18780944       53       0.02960700      -0.28348200      -0.62122100 
I      14.08361884       8.16851895      16.12171092       53      -0.37567300      -0.29708900       0.18484100 
I      13.63175860       9.03401523      35.53853290       53       0.17799300       0.17477600      -0.09694700 
I      14.67595549      19.79882714      16.38931492       53      -0.27735900      -0.27368800      -0.51645200 
I      13.46262451      20.11629716      36.20886473       53       0.23517700       0.03940900      -0.20796800 
I      18.89432000       8.26115365      15.94343477       53       0.08819600       0.76909600      -0.29297000 
I      19.26141219       9.15009175      35.20498777       53      -0.15234100      -0.36851300       0.55883500 
I      19.02164757      20.09591426      16.23442651       53      -0.16881900      -0.16178600      -0.60080000 
I      19.13991574      19.61799918      36.62274056       53      -0.47935900       0.33042400      -0.26703300 
I       1.03731688       9.27238507       6.06031263       53      -0.17715600      -0.03572000      -0.09665100 
I       1.54055423       8.41307294      25.72499953       53      -0.18817800      -0.59574500      -0.38165300 
I       1.29598596      20.61445639       6.14778044       53      -0.08729600       0.29054200      -0.39249000 
I       2.20756492      20.32003128      25.82411122       53      -0.61627800      -0.33397900      -0.21283400 
I       6.83805235       8.78619622       6.11215806       53      -0.27433800      -0.20609900      -0.01373800 
I       6.63460189       8.84682660      25.31543965       53       0.15180300      -0.33971100       0.25983900 
I       6.73461451      20.88684058       5.70445108       53      -0.69874700       0.73457700       0.10810700 
I       6.36077394      20.39397375      26.32510795       53       0.00739600       0.62083200      -1.02179300 
I      11.19439451       9.38768717       6.16708996       53      -0.38548800      -0.72408400       0.12081100 
I      11.49142756       8.70350758      25.50410570       53      -0.27623200      -0.08411500      -0.79714600 
I      12.12093237      20.59866084       6.19681388       53      -0.31706500      -0.19498100       0.20475700 
I      11.39757970      19.52609706      25.16324794       53       0.01973200       0.19115600       0.04296800 
I      15.98951439       8.72799012       6.24033556       53       0.11795200       0.27476600      -0.35915700 
I      16.62588798       8.87065716      25.77828668       53      -0.51044700      -0.45212900       0.12760300 
I      16.18450438      19.98098764       6.22041690       53       0.20714300      -0.23144800       0.04913100 
I      16.69249029      20.35638420      25.46340214       53      -0.13918100       0.17842200       0.35803600 
I       3.96791716       2.77966968      13.78251881       53      -0.20532700      -0.29412500       0.32917100 
I       4.51004292       1.92060548      33.60782627       53      -0.10936200      -0.19128100       0.42399800 
I       4.59540072      14.61805446      13.78702657       53      -0.32683100       0.36014100      -0.04135100 
I       4.29525672      13.99949971      33.80133373       53       0.19302300       0.12483300      -0.24937100 
I       8.76057501       2.39650646      14.29397380       53       0.02542300       0.01583400      -0.05147600 
I       8.74776083       2.10186912      33.66819443       53       0.06689400       0.08236600      -0.03543800 
I       9.14481161      14.25245398      13.83273480       53       0.09045000       0.07950200       0.30590300 
I       8.89973623      14.13080550      33.79408029       53      -0.19582900      -0.25624800      -0.05735400 
I      13.91105443       2.69753609      14.73895811       53       0.16050000      -0.28038800      -0.01297800 
I      13.70552456       2.20930661      34.22682282       53      -0.13554500       0.23846300      -0.45176900 
I      13.82210410      13.44660551      14.79846104       53      -0.19948100       0.28262300      -0.18691000 
I      13.84918335      14.11293463      33.79372114       53       0.17878000      -0.34077000       0.10356700 
I      19.18545153       2.50643046      13.98364805       53      -0.22179200       0.18846900      -0.38824800 
I      19.15963543       2.57705894      34.13793064       53      -0.03453500      -0.34149400       0.03067700 
I      19.25845939      13.96678218      14.30945917       53       0.03309300      -0.23887700      -0.49235100 
I      18.39999921      13.83758641      33.93425877       53      -0.05263600       0.38073700      -0.25478900 
H       3.34024178       0.59402324       5.62654671        1       1.80601900       1.03473900       0.53633500 
H       4.07664433       2.27129095      27.05785673        1       2.06219000       1.92691500      -0.62518300 
H       3.20423640      10.55271220       6.20004829        1       1.83813800       1.48101500      -1.51548300 
H       3.56106011      12.06152433      24.46239941        1      -0.63399200       0.00786000      -0.44426100 
H       7.71265192       1.44990404       5.46857592        1       0.87758700       1.68921600      -0.41429900 
H      10.17982665       0.55843249      25.50387409        1      -0.31260500       0.77593700       0.12094400 
H       7.39522373      13.55781817       7.14802303        1       2.09928900      -1.37064600      -2.69710800 
H       9.07849091      13.37357928      27.44504409        1       0.50131500       0.24263500       0.76846500 
H      14.95832248       1.60374357       5.46243156        1       2.38875800       0.36518900      -2.46576600 
H      12.89201656      -0.08610671      27.72032803        1       1.09235200       0.17804200      -1.87119900 
H      14.07410641      12.39179323       5.75339984        1      -0.36878100       0.99027300       1.89608600 
H      14.83256008      11.73358380      25.09327349        1      -0.84666200      -0.15460100      -1.05146600 
H      16.88064924       2.13489581       6.23450648        1      -0.74586200       0.29687900       0.96887600 
H      20.05782272       0.95968698      27.90699222        1       0.78022300       0.02666300       0.81895900 
H      19.35475601      13.49017412       6.76838195        1      -1.11218900       0.36856600      -0.31519100 
H      19.88070157      12.33315145      25.61547243        1      -0.62506900      -0.18575400      -0.08119600 
H       3.00144098      11.17184854      12.43846667        1      -1.13706200      -0.79125300      -0.12814800 
H       1.55028501      11.56256824      31.76970333        1      -0.53416500      -1.20925400       1.51976100 
H       1.48086765      21.66224480      11.70946041        1       0.38170500      -0.74349500       0.56051900 
H       1.97637812      19.81000065      32.74901511        1       0.36385000      -0.96254700       0.37463100 
H       5.22410254      11.51398170      12.57510261        1      -1.63979300       1.03911500      -2.20435900 
H       5.15670133       9.48582854      32.84455466        1       0.94325200      -0.14263000      -2.00941000 
H       5.09042348      20.62508505      13.03769455        1       0.52800400       1.13830100      -1.61477300 
H       6.24253435      21.51607807      34.68001865        1      -0.17283800       0.26832300      -1.10697600 
H      10.07444511      11.05879828      13.41642857        1       1.11529900      -1.25809200       1.30773800 
H      11.03370763       9.68399579      32.54854397        1       0.19667200      -3.83745600      -0.35416100 
H      11.26904509      20.62107723      13.53793829        1      -0.36483400       0.64834400       0.53373600 
H      10.36591742      20.55220574      32.45145252        1       1.01890500       0.25702300       1.40559000 
H      15.46745523      10.53523721      12.64599637        1       0.83309500      -1.56069400       0.32170500 
H      16.58144598      10.97829414      31.78767828        1      -0.50483900       0.49317200       0.20963200 
H      15.72205323      22.41889250      12.98136278        1      -2.52893000       1.84392800      -2.01854400 
H      16.93465061      20.19278329      32.80299709        1      -1.17006400      -0.21006200       1.40522900 
H       3.43232858       8.21062238       3.76417999        1       1.01785500      -1.06158800      -0.05937200 
H       3.76542273       7.95305015      23.99675365        1      -0.19723000      -0.59308800      -3.07843400 
H       5.11627631      17.85724391       4.15271722        1      -1.51597300       0.07855600      -0.75524700 
H       4.64007536      17.10502133      22.26136759        1      -0.76946300       0.28353600       0.00505900 
H       8.44939219       7.39682053       2.23540941        1      -0.44638900      -0.57799200       0.75200500 
H      10.08407793       6.85276432      22.36268724        1       0.16639100      -0.53111200       0.02222200 
H       9.81360275      18.85899556       5.27629182        1      -0.64074300      -0.52037100       1.12806400 
H       7.83173022      18.43117096      21.76865380        1       1.04967400       0.01058700       1.81927400 
H      13.08005205       8.33842848       2.57623962        1      -2.43535400       0.93378800      -2.82168700 
H      15.30772847       6.76604950      23.03853491        1       0.36379500       0.06688800       0.52688700 
H      13.22555251      17.74493747       2.61004277        1       1.36800200       0.10904400       0.86932900 
H      15.22366546      18.17992980      22.55247666        1      -0.83445200       0.10424700      -0.23906000 
H      17.78630628       6.42889040       4.00627399        1      -3.98966300      -1.65653000       1.93010600 
H      19.30051589       7.73458570      22.97623223        1      -1.53726800      -0.62406000       0.60225300 
H      18.92072686      18.85779464       2.92594457        1      -1.58034500       1.50149800      -2.58980200 
H      19.43719264      17.29672793      22.03445082        1       0.78424500      -0.08802700       0.27882300 
H       1.15585135       3.71525368      16.31559794        1       0.46585600      -0.24753500      -0.33046400 
H       1.37308019       4.69297989      35.17712185        1       1.98456300       0.95859500       0.22440500 
H       0.49434017      16.95503861      17.00818802        1       0.68633500      -0.70490100       0.13855300 
H       2.34698021      15.59171470      35.25608225        1      -0.82343300       0.81667900      -0.30504300 
H       7.85988794       5.73142422      16.77276077        1      -1.92551300      -0.52818300      -0.19815300 
H       6.97917156       6.02222006      34.27371563        1      -1.17286000      -1.08407300       0.97140400 
H       7.74906096      17.95659538      15.32405866        1      -1.79279000       0.11582900       1.01695700 
H       6.67175678      16.61739179      35.61824834        1       1.30564700      -0.13089900      -0.29697400 
H       9.95350983       4.99756125      16.02179931        1       0.89616400      -0.05106200       0.97913100 
H      12.33829691       5.75078986      36.00451741        1      -0.59170400       0.40257500      -0.62239600 
H      10.64223800      16.25447067      17.33849058        1      -1.67300800      -0.69254500       0.81134100 
H      11.94417751      17.89905554      35.91556197        1      -1.73758700      -0.84847700       1.03843600 
H      18.49622136       4.72007954      16.39643165        1       0.90361100      -1.53989100      -0.83238000 
H      17.74478340       4.69831615      36.59444713        1      -2.05451500       0.23199900      -1.53490200 
H      17.84994660      16.95175625      16.37963823        1      -1.02422300       0.67527100       0.37008500 
H      16.24532453      16.43191832      34.55705090        1       0.07579600      -0.35163000      -0.78462500 
H       5.01242423       1.42111372       5.26684980        1      -0.01261200       0.70715200      -0.07890800 
H       3.61426665       0.68869858      27.55585373        1      -0.79755000       0.80364800      -0.64589700 
H       4.58044693      10.97412818       7.03057214        1       2.02941100      -0.81363700       3.73738400 
H       2.76678306      10.61071526      25.54322369        1       1.65529600       2.17999500       0.30559400 