768
Lattice="19.2946831462 0.121217523335 0.0625546793577 0.125711461085 22.5981711002 0.196514841364 0.0776021618373 0.345335661507 39.7959723326" Properties=species:S:1:pos:R:3:Z:I:1:forces:R:3 energy=-99810.3423802 stress="6832.911855 1042.967558 4067.811793 1042.967558 2557.20213 -491.470534 4067.811793 -491.470534 3568.592087" pbc="T T T"
I       3.56731337       3.92977189      20.11805052       53       0.05568100       0.11416900      -0.03655900 
I       3.70518872       4.54713598      39.74461899       53      -0.17913200       0.36663800      -0.13279400 
I       3.58637961      15.42038184      19.70871128       53      -0.20517500      -0.08595300      -0.00151500 
I       3.84193805      16.15841618      40.20499580       53      -0.11928300      -0.13611200      -0.19957400 
I       8.71516171       4.11891529      20.39979280       53      -0.14324200      -0.07666500       0.36175400 
I       8.30711602       5.14092974      39.79161141       53      -0.10888900      -0.47677500       0.07054200 
I       8.59923314      15.76488593      20.23434258       53       0.05470200       0.02209100       0.02423400 
I       8.36120167      16.16472658      40.04519905       53       0.17022600       0.09283900       0.08754000 
I      13.18660337       4.02130262      20.13235781       53      -0.52772100      -0.04622500       0.55797800 
I      13.51534416       5.01319063      39.88632018       53      -0.16386300       0.03530300      -0.14756800 
I      13.16115566      15.72718396      20.32368117       53       0.21538400       0.08094800      -0.08018600 
I      13.23470150      16.29849890      39.60681472       53      -0.00785300      -0.06641100       0.11712300 
I      17.86393155       4.65906102      19.99614154       53       0.27439000      -0.66063300       0.34228200 
I      18.09247255       4.29573743      39.03550384       53       0.39916200       0.58598100      -0.11130500 
I      17.95683605      15.69871965      19.81972453       53       0.32167000      -0.46746300       0.06395100 
I      17.93168990      15.81112191      39.11391321       53      -0.25626700       0.43170600       0.11438200 
I       1.07764851       8.25535146       0.01537849       53       0.24292800      -0.14355300      -0.07644300 
I       0.93051317       7.79811919      20.04264659       53       0.20166000       0.40069500      -0.41924700 
I       1.56977632      18.83079018       0.38403572       53      -0.26305700       0.46845700       0.00462500 
I       1.30293633      19.14597909      20.23762622       53       0.63434600      -0.55653900       0.03907500 
I       6.08285138       8.81616768       0.65165448       53      -0.19059700      -0.27070600      -0.04044800 
I       5.88670003       7.71237697      19.82623699       53      -0.04975600       0.31480000       0.04294000 
I       5.73366856      19.87585408       0.82048987       53       0.83225500      -0.51954500      -0.26402800 
I       6.04646226      18.81929845      19.86074466       53       0.01354800       0.19258600       0.09969700 
I      10.84742450       7.94949361      -0.01013928       53      -0.12485800      -0.02714400       0.07256100 
I      10.63109003       7.78235791      19.72429080       53       0.07855900      -0.14858900      -0.03051100 
I      10.52020877      19.73208666       0.56068626       53       0.48135000      -0.27870100       0.06797400 
I      11.53477360      19.34151818      20.25868255       53      -0.65299000      -0.13544100       0.00606300 
I      15.57961609       8.27781404      -0.08838213       53       0.55264300      -0.20698400       0.45230400 
I      15.55258849       8.00623237      20.25544053       53      -0.04749200      -0.06655800      -0.34120900 
I      15.44246468      19.07130215       0.25049489       53       0.20869900      -0.23701000       0.32298800 
I      15.75500252      19.03435459      20.20452075       53       0.33607600       0.05397900      -0.07810200 
I       4.05420604       9.65920746       9.49897614       53      -0.46328300      -0.18079900       0.14396200 
I       3.94891529       9.20339261      29.67375526       53       0.44750500       0.26949200       0.00519300 
I       3.96178790      20.98923477       9.59141357       53       0.02673100      -0.26354000      -0.36119700 
I       3.83222725      20.51012984      29.85309546       53      -0.02371600       0.07581400       0.12908500 
I       8.08610181       8.71186690      10.86112461       53       0.32249800       0.77288600      -0.27515700 
I       9.00644320       9.31308795      29.69505933       53      -0.02929600      -0.12437100      -0.06481400 
I       8.66402667      20.69333344      10.20150878       53       0.17208500      -0.13753200      -0.62864100 
I       8.79631557      20.69382589      29.43490744       53       0.49285600       0.06004000       0.29773100 
I      13.02112980       9.71019121      10.29232267       53       0.10015300      -0.03684500      -0.06061800 
I      13.70080387       9.24764054      29.81573973       53      -0.54263900       0.14573100       0.09988700 
I      13.58750201      20.71795973       9.92425942       53      -0.49727400       0.59600400       0.31929200 
I      13.80970723      20.36848754      29.28035294       53      -0.25306500      -0.26177500      -0.12444100 
I      18.20452655       9.22732440       9.93314982       53       0.31749200       0.45849400       0.61349700 
I      18.58500245       9.14447999      30.23392572       53       0.43355800       0.19676100       0.10373100 
I      18.42195861      21.03338522      10.00699113       53       0.10989200      -0.81370600      -0.04837000 
I      18.04289201      20.15291052      29.60127046       53       0.14198300       0.19508500       0.05565600 
I       1.36362987       1.59142967      10.36266102       53      -0.28772700       0.45966800      -0.22553600 
I       1.34253497       1.61426691      30.49937164       53       0.02559000       0.38084100      -0.33677500 
I       0.71376850      13.43039290       9.72461527       53       0.88080500      -0.58584200      -0.09328800 
I       1.49064504      13.17871106      29.91364584       53       0.02363400      -0.11669200       0.01123100 
I       6.05588572       1.67645911      10.76958881       53      -0.00844400       0.23013600      -0.42042500 
I       6.29101634       1.57293913      29.77535826       53       0.00416600       0.66924500       0.07981400 
I       6.33124653      13.00583864      10.44897691       53      -0.00217200       0.27864700      -0.13210400 
I       6.55676585      13.19898861      29.89285046       53      -0.47339200      -0.38398800      -0.12426400 
I      10.79180161       1.52469581      10.61291527       53       0.10920600       0.24601300      -0.09786000 
I      10.87097960       1.45170029      29.92555285       53       0.02287900       0.48899900       0.51243000 
I      10.69179576      12.88015459      10.27403317       53      -0.25025700       0.12502400      -0.18817000 
I      10.78134351      13.05345955      29.95235503       53       0.64048300      -0.63184500      -0.26463300 
I      15.88822959       2.30838941       9.82948566       53      -0.49540800      -0.29179400       0.04099200 
I      15.59009145       1.34349447      30.87797117       53       0.39612600       0.01734100      -0.78070700 
I      15.68298072      12.91362762      10.91286988       53      -0.25677300       0.43719000      -0.38661600 
I      16.16878798      12.88414796      29.64636417       53      -0.00041400      -0.02451000      -0.05602500 
I       1.39141695       0.51640990      18.49842459       53      -0.78397000       0.61084300      -0.76813300 
I       0.94424882       0.78526841      37.92335071       53      -0.43360600       0.27236400      -0.16060900 
I       1.21818306      12.21644385      18.00065347       53      -0.15590300      -0.30904400      -0.25636400 
I       1.19243379      12.51885966      37.56047488       53       0.23383600      -0.05279700      -0.10865600 
I       6.26979858       0.57086209      18.22372072       53      -0.31366600       0.35283200       0.00483600 
I       5.72712666       1.04368607      37.79651424       53       0.02536700       0.45615400       0.11560000 
I       6.08097298      11.83703305      17.49514436       53      -0.26525200       0.19210900      -0.04692000 
I       6.49483764      12.79697105      37.85329970       53      -0.33916400      -0.35669600       0.19129500 
I      10.66147945       0.75796972      18.03153127       53       0.05982100      -0.11043100       0.10907500 
I      10.93755303       1.54880833      38.30833476       53      -0.05466400      -0.07443400      -0.07205100 
I      10.68801358      11.76680131      17.96082637       53       0.14904800       0.45310100      -0.24081000 
I      11.36582144      12.52198085      37.83378163       53      -0.76560600       0.54073000      -0.26881900 
I      15.43080339       1.32047852      17.83396757       53       0.21321400      -0.23848800       0.14211000 
I      16.03978374       0.55026064      37.83592504       53      -0.40140300       0.12274400      -0.08034300 
I      15.35261639      11.91187651      17.89847578       53       0.08948200       0.27367400       0.07107500 
I      15.66022876      12.90629680      37.54400591       53       0.00906900      -0.66894200       0.25418100 
I       3.16062521      11.94751426       1.92156859       53       0.30249700      -0.66505200       0.09936300 
I       3.90087910      11.09076118      21.54810863       53      -0.07076200       0.19962300      -0.03054100 
I       3.69919918      22.94340929       2.44021835       53      -0.25185700       0.27895600      -0.30399200 
I       3.70825305      22.45072202      22.16692365       53       0.02148800       0.21217400      -0.08904400 
I       8.58107869      12.07157477       2.24895591       53       0.33465500      -0.62145100      -0.02277900 
I       8.49371394      11.22166209      21.71459552       53       0.34275600      -0.35727800       0.14402100 
I       8.27572852      22.79506365       2.31540141       53       0.22359800       0.51562200       0.46842400 
I       8.39243687      22.47740744      22.59434729       53       0.02513600       0.10300900      -0.33272800 
I      13.09277795      11.55774588       1.92663925       53       0.10456900      -0.13819500      -0.01925800 
I      13.29146057      11.44685954      22.11181860       53      -0.41951200      -0.12962400      -0.23413600 
I      13.38940932      23.43912636       2.37101009       53      -0.22192800      -0.50831400      -0.11117700 
I      13.59129028      22.42835488      22.25208103       53       0.03677600      -0.04766200      -0.00895500 
I      17.74408678      11.84987621       2.05798996       53       0.19531600      -0.58745900      -0.12395000 
I      17.49368023      11.05147628      22.14151148       53       0.43542500       0.28835900       0.12309800 
I      18.06638010      22.65739543       2.23750785       53       0.09255100       0.18174800      -0.24034200 
I      18.11704808      22.71619129      22.22293948       53       0.16695900      -0.37241400       0.15434800 
I       0.71997127       6.13217402      12.49604171       53       0.55824800      -0.02036500      -0.07291600 
I       1.64736020       5.74934454      32.07129339       53      -0.35743200       0.08394700       0.48043300 
I       1.19702520      17.22382972      11.84846386       53       0.35113300       0.32181000      -0.19868100 
I       1.33729475      17.16310978      31.58812705       53       0.09673600      -0.07245700       0.38372500 
I       5.77491917       5.81781059      11.80139529       53       0.21226400       0.15385100       0.56318000 
I       6.51254737       6.14620209      31.79381558       53      -0.15866700      -0.48254100       0.14644800 
I       5.72512947      17.32594141      11.52611470       53       0.42306400       0.25184500      -0.09615600 
I       6.39795907      17.29322684      32.00770305       53      -0.07389800      -0.18773800       0.19693700 
I      10.64862512       6.13887838      12.14906930       53       0.65409800      -0.55946100       0.20976300 
I      10.92636997       5.91892419      31.56789012       53       0.14328100      -0.06884100       0.28212600 
I      10.72489616      17.56574061      12.21990416       53       0.11176400      -0.01943800      -0.15691000 
I      11.44044253      17.16808195      31.56032170       53      -0.12540300      -0.00029200      -0.03438500 
I      15.37962164       6.12060005      12.55071321       53       0.15060900      -0.15338400      -0.20992500 
I      15.44815064       6.08498666      32.01964458       53       0.15026300      -0.51667700       0.07841000 
I      15.46686658      17.13691985      12.39542461       53      -0.22874200       0.18301300      -0.20575500 
I      15.50967981      17.09393807      31.42143506       53       0.47068000       0.27290900      -0.02050800 
I       3.49721972       5.12086136       7.88344918       53       0.11568500       0.13837100       0.04027400 
I       4.57169424       4.93629414      28.15852962       53      -0.52807900      -0.11787500      -0.10995000 
I       3.99171431      16.72385630       7.60937685       53      -0.11509100       0.22799700       0.13416700 
I       4.04079632      16.52668047      27.93019778       53       0.45149400       0.34120900      -0.20616300 
I       8.73144284       5.21317289       8.37401335       53      -0.15030200      -0.23303300      -0.23719900 
I       8.82415645       4.88787008      27.98798945       53       0.01507100       0.33032500      -0.00755200 
I       9.09388207      16.45750672       7.42848519       53      -0.04517700       0.45112300       0.38625300 
I       8.54691217      16.20508064      27.84590751       53       0.11633500       0.19965700       0.02786700 
I      13.29727243       5.88409059       8.00967034       53       0.04941900      -0.63904700       0.35370100 
I      13.69404570       4.97377780      28.02579600       53      -0.00266700       0.07707200       0.16587700 
I      13.45644169      16.25311480       8.39866198       53      -0.01323600       0.46510800       0.01214900 
I      13.39992936      15.99404122      27.47539422       53      -0.07593900       0.16807900       0.02947900 
I      17.93941570       5.42002805       8.44902231       53       0.26273200       0.28625600      -0.52543000 
I      18.67878725       5.31575976      27.90074452       53      -0.35392000      -0.60222800       0.85384600 
I      18.27940554      16.63007962       8.13338664       53      -0.02033400       0.41808000      -0.23122500 
I      18.81154219      16.04966512      27.53180604       53      -0.21879400       0.19662600       0.29186700 
I       0.90182852       3.79828411       3.79975839       53       0.35451200      -0.01498600       0.13517100 
I       1.65596834       3.49663691      24.28748352       53      -0.31866000      -0.33892800      -0.24197300 
I       0.69723048      14.76475328       3.74541688       53       0.23573900       0.08304600       0.35501700 
I       0.94432700      14.45316175      24.11000243       53       0.21739900       0.32434400      -0.25805300 
I       5.67451327       4.24488059       4.23962311       53      -0.57537000      -0.80298400      -0.61416600 
I       5.73456105       3.35220443      24.37011877       53       0.21547400      -0.16206500      -0.02270300 
I       6.10756905      15.17129118       4.27810994       53      -0.00642600       0.12538400       0.20762300 
I       5.84332937      14.54449144      23.95167590       53       0.10687800       0.00091100       0.00656800 
I      11.55007289       4.16860143       4.75852367       53      -0.61753600       0.39713900      -0.95081800 
I      11.29576333       3.08046030      23.99273665       53      -0.26678600       0.22280300       0.45508300 
I      11.30584169      15.18637318       3.77989206       53       0.00389400      -0.06256200       0.48414600 
I      10.68369530      14.65194285      24.02838253       53      -0.36671700      -0.12372300       0.28792500 
I      15.82857374       3.73148222       3.55251770       53       0.02318900      -0.04310100      -0.01032400 
I      15.08076666       2.82214519      24.21327365       53       0.81316600       0.18139700       0.26526200 
I      15.75301751      14.71278768       3.95187199       53      -0.34408600       0.45177500      -0.11464400 
I      16.10089967      14.71882089      23.80141329       53      -0.22225400      -0.00642600       0.40765300 
I       3.92787522       7.50035164      16.14554053       53      -0.07521100       0.14823400      -0.23155400 
I       3.98276604       8.95064263      35.73223926       53      -0.36127400      -0.02763100       0.42133200 
I       4.38031301      20.21266588      16.24460922       53       0.30046900      -0.55822600      -1.10351600 
I       3.56313622      19.58794254      36.01934970       53       0.02219900       0.73575400       0.40318900 
I       8.17846208       8.01017294      15.59244706       53       0.21451800       0.32515100      -0.23635900 
I       7.76282462       8.74141662      36.41107262       53       0.88848200      -0.28506700       0.45378900 
I       8.86545986      20.20444460      16.21138190       53       0.17043800      -0.53137800       0.33091600 
I       8.90250185      20.40063859      36.14718832       53      -0.09138900       0.28002400       0.19845200 
I      13.27975054       8.28929156      16.07486407       53      -0.11198900      -0.10160400       0.21032400 
I      13.26169356       9.00144869      35.64648181       53      -0.14126500      -0.17168900       0.22246900 
I      13.66303591      19.91147052      16.11354382       53       0.46408500      -0.41562000       0.57347800 
I      13.07870521      19.39772997      36.54476372       53       0.07157100       0.84989200      -0.10575400 
I      18.34804217       8.53562555      16.32614078       53       0.01134100       0.08537900      -0.47683700 
I      18.22447817       8.87183524      36.33987630       53       0.98089200      -0.00109600      -0.74918700 
I      18.35341133      20.67311174      16.02594858       53      -0.06255600      -0.34897600       0.21877200 
I      17.92613898      19.84540781      36.13081377       53       0.25916200      -0.36455100       0.33091000 
I       0.93377041       8.89304285       6.21616984       53       0.25748700       0.24884100      -0.09168300 
I       1.43340876       8.13863194      26.17343974       53       0.50916000       0.27703600       0.02849100 
I       1.53269067      20.98120843       5.66261337       53      -0.50793100      -0.08073700       0.26028900 
I       1.65579979      19.96197706      25.69042266       53      -0.07803900      -0.13741800       0.21145900 
I       6.59812815       8.88040683       6.10028493       53      -0.34063700      -0.22737000      -0.02696800 
I       6.45541161       8.42415436      25.48746948       53       0.24034000       0.35236600       0.28924000 
I       6.16297262      21.05770894       5.56864986       53       0.01933000       0.57049800      -0.22600600 
I       6.29370093      20.14407596      25.86171418       53      -0.34516900       0.07466000       0.17615200 
I      11.06357925       8.91614612       6.32617790       53      -0.21940500       0.29567100      -0.44074400 
I      11.74408895       9.05979576      25.04317480       53      -0.64161500      -0.19227600       0.28932800 
I      11.33566048      20.31571372       6.46477415       53       0.50438800       0.40821200      -0.22554300 
I      10.79800032      20.01203887      25.50532542       53       0.47615900       0.01649700       0.34885700 
I      15.89467402       8.83701890       6.48391553       53       0.03939500       0.43645800       0.03971000 
I      15.96075704       8.67333539      26.30100015       53       0.02945100      -0.09146200      -0.46802000 
I      15.95991531      19.68595120       6.23604227       53      -0.18838100       0.65376100      -0.63482800 
I      16.00060951      20.65715044      25.72677928       53       0.21848600      -0.37726300      -0.10609700 
I       3.82077410       2.34265340      14.16974617       53      -0.05471200       0.23088300       0.14460800 
I       3.90191882       1.82524541      34.00331805       53      -0.08404500       0.18271600      -0.07671300 
I       3.75197807      14.71609265      14.08188086       53       0.35817500      -0.37869300      -0.13603700 
I       3.72525711      13.75390666      33.53027069       53       0.14485900      -0.35745900       1.02395400 
I       8.43512928       2.24285569      14.36712609       53      -0.13195700      -0.20314700      -0.22892800 
I       8.33317599       2.23224427      34.14810793       53       0.24346700      -0.11456700       0.29654600 
I       9.03162590      14.50428664      13.79188480       53      -0.65742200      -0.46380500      -0.38020200 
I       8.42901484      13.96318039      34.20510966       53       0.10528700      -0.26115300      -0.31541400 
I      13.42818654       2.44702627      14.33349264       53      -0.09217600       0.20192400       0.29240700 
I      13.54553660       2.66837961      34.18346342       53      -0.38288800      -0.07532900       0.15309600 
I      13.12451372      13.65449682      14.42029793       53       0.09960800      -0.17081300       0.45926300 
I      13.75362135      13.77229261      33.87997032       53      -0.11929100       0.03970900      -0.17144100 
I      18.06128000       2.36031439      13.97758211       53       0.21517600       0.05091200       0.29299500 
I      17.94778827       2.06398763      33.93291370       53       0.16497800       0.40391500       0.50718100 
I      18.48576623      13.93621981      14.10422566       53      -0.00673000      -0.26521300       0.61795000 
I      17.99832628      13.51876690      33.72166004       53       0.31836800       0.04635700       0.13133200 
H       3.49784619       0.70542029       6.00380235        1      -1.60060500      -0.84000400      -1.12811600 
H       4.52877237       0.02506797      27.21022448        1      -1.69304800       1.23589800      -0.37036400 
H       3.58854535      12.38331149       7.75110139        1       0.26028800       0.62332200      -0.66407100 
H       2.18055282      11.77635575      26.08831688        1       0.82528200       1.20548700       0.91979300 
H       9.47132715       2.22438851       7.16266258        1       0.96843900       1.27655500       1.42635300 
H       8.97625279       1.87715719      27.77650024        1       0.62841400      -0.40068100      -1.48545500 
H       9.66190930      12.91314228       7.53395667        1       1.27509300       1.12189900      -0.53562100 
H       9.77531269      11.43781379      26.42064388        1      -2.23051800       0.80847600      -0.16954500 
H      12.31001441       1.41858466       5.75998947        1      -0.32974900       1.05418300       1.22697100 
H      14.11617836       0.85803852      27.66358421        1      -0.13994100      -1.12464600       0.30038700 
H      13.77314551      11.62878076       5.67675212        1       0.09996800      -0.02878400      -1.34147300 
H      14.08561938      11.35521408      25.24292251        1       0.61766700       0.41313200       0.70794600 
H      18.02725157      -0.52894439       7.18776913        1       0.47246100      -1.36610900       0.48720800 
H      19.19523675       1.30343283      27.36691426        1       1.07803700       1.19791900       1.23578100 
H      17.97145607      13.46935897       6.25652288        1      -0.74037400       0.18586100       0.34576100 
H      19.18987774      12.90551599      26.55936603        1      -0.68623000      -0.43366300       0.07560600 
H       2.46564372      11.06234966      12.81870055        1       2.44648800       1.79986500      -0.52872600 
H       0.62723735       9.87207044      32.75287936        1      -1.11990500      -0.57317700      -0.91470000 
H       1.12311180      22.69505069      13.02144354        1       0.01526800      -0.92608800       0.45304500 
H       1.98340846      21.04919219      33.14150649        1      -0.22684300      -0.36369500      -0.31369800 
H       5.67742631      10.32054025      12.64359537        1      -0.19683200      -0.85015600      -3.36483400 
H       5.90929766       8.98650985      32.83967348        1       0.22738500      -0.87332000       0.41093900 
H       6.23049846      19.68731075      13.37931674        1       0.15022100       0.70340600      -0.79581200 
H       7.47665846      20.48824194      33.20645130        1       1.30196400       0.19834900       0.39087700 
H      10.23482951      10.94005485      12.73770103        1      -0.02842900       0.11503500      -0.04158300 
H      11.64935277      10.44510944      32.64728096        1      -1.21327700       0.53774900      -0.16318000 
H      12.47622919      20.96258794      12.73794573        1       1.77298000       0.26281000      -1.95890800 
H      13.04037576      22.14287205      32.89080040        1      -2.51628200       0.39280000       0.35282600 
H      15.08077986      10.29718010      12.78974582        1      -2.78351200       0.22162400      -2.54365700 
H      16.51657875      10.74349838      32.31459047        1       1.23616500      -0.09357900      -0.42458300 
H      15.56894578      20.88308199      12.49622142        1      -0.30458700       0.97331300       0.81451300 
H      16.73383922      21.06807972      32.68679127        1      -2.41031500       1.14149200       1.75457800 
H       2.63272967       8.73301359       3.82340284        1       1.99677300      -1.90542900      -1.43013500 
H       2.48662288       7.30048513      23.72262114        1       0.08035800       0.75691500      -0.77473900 
H       3.40477924      17.71007663       4.95759110        1       0.28811600      -1.01563000      -0.87476900 
H       4.83880127      17.40932193      22.44196158        1      -0.99059500       0.32056900       1.39422800 
H       7.73018112       6.37676466       2.52360902        1       0.04106800      -0.72236700      -0.86241700 
H       9.80878370       6.24207040      22.96560585        1       0.44224200       0.52622900      -1.40458900 
H       8.99980484      18.76000812       5.24621237        1      -0.20979500      -0.67481900       0.63024300 
H       8.08833761      17.13675739      22.70631092        1      -0.72085700      -0.75216100      -0.64469300 
H      13.25197971       6.12673479       2.75303135        1      -0.31859100       1.55902900       0.71200600 
H      13.38877879       6.09587832      22.57734729        1      -0.23989800      -1.37868000      -1.62911900 
H      13.76593043      19.33234856       3.44231367        1       0.34575200       0.98797600       0.69195300 
H      14.45174635      18.57163841      23.28342553        1       0.05061200      -0.45215500      -1.35657200 
H      17.73752661       8.28871991       3.71150014        1      -0.84084500       0.68266500      -0.56125600 
H      19.48822403       7.48623727      23.46015832        1       1.71266400      -0.23918800      -0.06628900 
H      19.11407477      18.47281544       2.99223454        1       2.09777300       0.74561100      -0.47387500 
H      19.11650450      18.31981138      22.94416775        1      -0.68003300      -0.60597700      -1.02662000 
H       2.31800680       3.90237776      17.25687935        1       0.26456100      -1.26104400       0.55782600 
H       0.88594338       4.43430119      35.11187177        1      -1.98516800      -0.12933400      -0.78130900 
H       1.88479059      17.57300137      17.17267742        1      -0.35189700       0.95815300      -0.13475200 
H       0.95612435      16.00489734      35.65548593        1      -2.24430100      -1.65567100      -1.54087000 
H       8.06375802       4.41170661      17.48928782        1      -0.37073600       0.04290900      -0.48673900 
H       6.54757998       3.93466689      36.92633213        1       0.78939900       1.37403200      -0.97068500 
H       7.20070672      15.59283188      16.54293419        1       0.93289000      -0.95142000      -0.87418000 
H       6.42676758      17.07740310      35.85805632        1      -1.04589400      -1.00341000      -0.68337600 
H       9.48116690       4.87609710      16.36830318        1      -0.45134400       0.55617400      -0.86038800 
H      10.20891880       6.40959294      36.85344627        1      -0.07976800      -0.79730000       0.34799600 
H      11.72245591      16.02564398      15.97900897        1      -0.21953600      -0.58907400      -0.79453100 
H       9.45768999      15.91398394      36.69886436        1      -1.38463700      -1.40570000      -0.57544900 
H      15.95658192       6.70323715      16.73588718        1      -0.59633800       0.43095600       0.87608400 
H      16.14382459       5.18881973      35.51359081        1       2.86794000      -2.49313700      -0.36839700 
H      16.94071469      17.33139688      15.91364583        1       2.09906000      -0.39994500       0.00233800 
H      15.34687255      16.55181748      34.64780822        1       0.62806100      -0.03092100       0.72002600 
H       2.45636850       2.24344053       6.54855472        1      -2.27497500       2.60070500      -1.94787800 
H       2.79398751       0.72895914      27.27286242        1      -1.04877400      -0.96530800      -0.13805300 
H       4.78505374      13.64892661       7.17209924        1       1.78444400       1.34550000       1.39712400 
H       3.09003403      11.80276804      27.72280448        1      -0.07085700       0.12254800       0.15749300 