768
Lattice="19.0878545657 0.000906242616757 -0.121602358968 0.00388460206638 21.5035972755 -0.235139356084 -0.238888712793 -0.392165139689 38.2558079478" Properties=species:S:1:pos:R:3:Z:I:1:forces:R:3 energy=-99822.541702 stress="3729.105666 875.144166 777.475468 875.144166 1969.342006 665.918508 777.475468 665.918508 2016.242283" pbc="T T T"
I       3.27857552       3.78633496      19.00666688       53       0.37974500       0.08148100       0.08306600 
I       3.23070162       3.93674162      38.39255680       53       0.15713800      -0.19094300      -0.27640400 
I       3.73416480      14.60383619      19.20774711       53      -0.46727200      -0.60650900       0.16663500 
I       3.46674031      14.14452913      37.29714344       53      -0.47308900       0.12823900       0.27697600 
I       7.93462105       3.65986772      18.96204282       53       0.75066200       0.28482700      -0.30629900 
I       7.91497691       4.17053247      38.53092366       53      -0.04833000      -0.59641000       0.46466100 
I       8.31589943      14.77521279      18.85847943       53      -0.21311400      -0.23361200       0.49491800 
I       7.97375435      14.37827655      38.24390537       53       0.13165400      -0.14583700      -0.30727600 
I      13.09557305       3.56274279      18.83398817       53       0.68784800       0.45423300       0.13772100 
I      12.64453373       3.46008564      38.59919394       53      -0.05471800       0.14891500       0.05592300 
I      13.17446848      14.69141990      18.87103651       53       0.69817300       0.30147200       0.14958800 
I      13.26400683      14.63267899      38.01701302       53       0.44430300       0.11829400       0.08211000 
I      18.01812598       3.55287383      19.09268292       53      -0.54256900      -0.08768600       0.02948400 
I      17.34162870       3.48971228      38.30176570       53       0.31693200      -0.38152400      -0.35372100 
I      17.83597417      14.46236461      18.71753204       53      -0.07708000       0.08282100       0.10153600 
I      17.49358426      14.61756014      38.00259606       53      -0.44966700       0.30056400      -0.30448200 
I       0.83533654       7.25660448       0.02821001       53       0.38347400      -0.23211200      -0.14554000 
I       0.66841612       7.09954020      19.04970550       53      -0.10640500       0.47113100       0.06604100 
I       1.16459481      18.78876884      -0.86375682       53       0.18130600      -0.39295500       0.40613100 
I       0.37374216      17.97215539      18.80278598       53       0.34193500       0.29748500      -0.27785000 
I       5.92891463       7.53961280      -0.24282564       53      -0.33547600      -0.05384600      -0.01617700 
I       5.60407403       7.60950010      19.48428141       53       0.59220400      -0.43088900       0.03735200 
I       5.90394458      18.16541607      -0.29306287       53      -0.32445800      -0.23870500       0.52269500 
I       5.33301371      17.67576667      19.05130969       53       0.65001000       0.66043000      -0.17639600 
I      10.75812062       7.40663502      -0.39666674       53       0.19255300       0.91768100       0.37055100 
I      10.34056390       6.73476274      18.54204379       53       0.10947900       0.29348100       0.06186800 
I      10.43479339      18.78304016      -0.01054914       53       0.38969900      -0.66576200       0.27690400 
I      10.64401105      17.68012117      19.35088704       53      -0.10864700       0.26976400       0.02435500 
I      15.46869669       7.80026121      -0.11611061       53       0.15380700      -0.33760700       0.14422400 
I      15.63653519       7.20740479      18.05533227       53      -0.36798300      -0.32381100       0.24518500 
I      15.71159340      18.61571203      -0.77314045       53       0.29273000      -0.00370100       0.15387200 
I      15.05766235      17.59523250      18.66150098       53       0.31536600       0.19417000      -0.11607700 
I       3.20786391       8.91181022       8.91027613       53       0.20176700      -0.40641000       0.09938200 
I       3.50991714       8.59836578      27.93748746       53      -0.21856400       0.43020800       0.30729500 
I       3.86618895      19.26449784       9.41050428       53       0.07672900       0.16357000       0.22055200 
I       3.45981910      19.11170612      28.02621335       53      -0.08052900      -0.35551100       0.19523700 
I       8.17562729       8.56746370       9.08396473       53       0.08739800       0.18052700       0.04746700 
I       8.55753452       7.90456598      28.77774022       53      -0.52221600      -0.06527500      -0.15153400 
I       8.37673023      19.13004421       9.04220156       53      -0.14123600       0.13002400       0.15859000 
I       8.29344772      19.24074599      27.95234570       53      -0.19550100      -0.11422200      -0.01139400 
I      13.37319722       8.49047355       8.93566869       53      -0.27689800      -0.35392600       0.13704200 
I      12.65525266       8.13388682      28.66825762       53       0.22580900      -0.16480400      -0.17530300 
I      12.62348975      19.52853922       8.53780942       53       0.51247800       0.37295500       0.15542000 
I      12.62890154      19.29661713      28.17812153       53       0.34531400       0.04824700      -0.05758200 
I      17.58461031       7.97002671       9.33519434       53      -0.30816400       0.39049400       0.41952300 
I      17.68401565       8.07191977      28.33108502       53       0.16231400       0.41040300       0.32778900 
I      17.68121005      19.71360423       8.85303180       53      -0.08236700      -0.08839800       0.13958600 
I      18.02626143      18.91391225      28.78550942       53      -0.13952500      -0.25859300      -0.28428800 
I       0.83883712       1.34759166       9.54129642       53       0.34402000       0.29485600       0.42250500 
I       1.37264364       1.00729459      28.37259350       53       0.21314400       0.00942400       0.13990600 
I       0.87591903      12.31490821       8.98161065       53       0.01008600       0.25843400       0.26094600 
I       1.11741689      11.59285102      28.06039785       53      -0.17302600       0.21299000      -0.12870400 
I       5.86928524       1.58953178       9.38959950       53       0.17901800       0.12581200       0.16470900 
I       6.29921543       1.01823663      28.99724936       53      -0.00619600       0.19713300      -0.16456000 
I       6.23055126      11.84877374      10.07712174       53      -0.19340300       0.13145500      -0.06074600 
I       6.53371311      11.95634513      28.23479329       53      -0.72515300      -0.29773800       0.09554900 
I      10.38907256       0.99904857       9.99871398       53       0.07866200       0.51124700       0.04320500 
I      10.72147307       1.09941248      28.78560123       53       0.23629300      -0.33846700      -0.17390000 
I      10.35786247      12.13880099       9.09163324       53       0.25879100      -0.07031100      -0.03460800 
I      10.57799651      11.66440766      28.68615542       53       0.74415600      -0.08280900      -0.58103200 
I      14.99724124       1.80145632       9.24066770       53      -0.04470600      -0.15607100       0.21359800 
I      15.74711061       0.60811940      28.79502892       53      -0.43305400      -0.04987500      -0.05819500 
I      15.47996549      11.69229584       9.47885946       53       0.02985400       0.57857600       0.13938200 
I      15.34044559      11.76800758      28.45509021       53       0.15182300      -0.03996800      -0.23332300 
I       1.14922324       0.65287574      17.28662135       53      -0.04255300      -0.34407400      -0.14414900 
I       1.60358249       0.37407089      35.94903746       53      -0.62441600       0.57843400      -0.32768700 
I       1.19191536      11.44140386      16.89874556       53      -0.01685800      -0.18432000       0.39050100 
I       0.74952089      11.00549129      35.83416775       53       0.13712200      -0.24664200       0.16854400 
I       5.78724067       0.28347624      17.59194416       53       0.12045800      -0.23103300      -0.13419900 
I       5.87111155       0.66213560      36.32506200       53       0.00293800       0.20303500      -0.14352000 
I       5.49400208      10.93071739      17.12062396       53       0.10414500       0.40380900       0.30687900 
I       5.29412425      10.73275767      36.27262925       53       0.24347600      -0.18130200      -0.39684000 
I      10.41784725       0.16539619      17.45646583       53      -0.16375800       0.05171000       0.37408900 
I      10.22293006       0.09525222      36.20337573       53       0.20335100       0.20852500      -0.08744100 
I      10.63883520      10.89967216      16.61668594       53      -0.13215900      -0.26236100       0.03739800 
I      10.91459259      10.89619329      35.89971930       53      -0.72360300       0.46115900      -0.25004800 
I      14.64750366       0.25640940      16.81670889       53       0.26168000       0.21960000       0.24705100 
I      14.76585322       0.49936535      36.34089558       53       0.12773000      -0.06890000       0.01307300 
I      14.81468074      11.32070478      16.90261733       53       0.16275800      -0.29403300      -0.14937500 
I      15.32152999      11.06449183      35.78277057       53      -0.00886500       0.09084100       0.28858500 
I       3.16178473      11.08965832       1.23070314       53      -0.04498900      -0.65383600       0.40521100 
I       3.65086057      10.68174352      21.09687204       53      -0.20781300       0.09579100      -0.18517800 
I       3.63428660      21.72881436       1.95024793       53       0.09767500      -0.08183500      -0.10495500 
I       3.61026624      21.26863068      20.90726101       53       0.24474900      -0.32935500       0.25418100 
I       8.55893633      10.97390607       1.24335006       53       0.02042000      -0.24179100       0.13784500 
I       8.96313436      10.76767072      20.49098172       53      -0.80532100      -0.68049200       0.20279000 
I       8.10204592      21.57440859       1.83218367       53       0.10393400       0.01055500      -0.01360100 
I       8.57311833      21.66933503      21.13671808       53       0.11269300      -0.56936900      -0.15643000 
I      13.13285338      10.81538962       1.45388167       53      -0.02938600      -0.05769400      -0.07480500 
I      13.22724773      10.50464811      20.61223560       53      -0.18510900      -0.16325000      -0.06078300 
I      13.14943525      21.29195112       1.81974603       53      -0.23821600       0.10319600       0.06205600 
I      13.16267054      21.01012547      20.78016196       53      -0.06997100       0.17461500       0.04507200 
I      17.99734064      11.04951513       2.03262519       53       0.00828000      -0.23822500      -0.42565600 
I      17.66653938      10.81400064      20.88489814       53       0.32465400      -0.48094800      -0.13845800 
I      18.11549869      21.75377947       1.73545362       53      -0.22795100      -0.29272100      -0.14738800 
I      17.77460437      21.12798439      20.85490131       53       0.02600300      -0.03311900       0.07824100 
I       0.85986037       5.19375837      11.33082350       53       0.06743600       0.11025900       0.17776500 
I       1.05194925       4.83239068      30.04589744       53       0.42310100       0.25426000       0.25483600 
I       1.12850800      15.89546884      11.34603614       53       0.03827700       0.05288600      -0.08194900 
I       1.42904885      15.67528052      30.19101867       53      -0.19417400      -0.30233700      -0.10336000 
I       6.24303628       5.96504587      11.23016640       53      -0.29885400      -0.58487300       0.04440500 
I       5.61805465       5.53423609      30.54196655       53       0.01795200      -0.38247800       0.34498500 
I       5.44983805      15.66217554      11.93889255       53       0.69111200       0.67641900       0.02656400 
I       5.45990840      15.72095199      30.27845134       53       0.27231800       0.09716200      -0.10763600 
I      10.46358683       5.57231507      11.35013496       53       0.14497200       0.14156500       0.14492800 
I      11.30998585       4.83460297      30.85804581       53      -0.14627200       0.00346300       0.09025700 
I      10.57154915      16.48445152      10.95216612       53       0.27716400      -0.49974800       0.13622400 
I      11.01708191      15.93333754      30.18728708       53      -0.17695900       0.09587200       0.33795100 
I      15.19358887       5.46649199      11.38196994       53      -0.25314000      -0.12541500       0.26616600 
I      15.73859410       4.65042348      30.44981313       53      -0.13942500       0.37717000       0.16102100 
I      14.76989380      16.81755096      10.60505051       53       0.20627500      -0.62118200       0.21444100 
I      15.57701736      15.70681440      30.30505222       53      -0.00242400       0.11475700      -0.16029000 
I       3.42597617       4.81906358       7.16769794       53       0.01358000       0.06930500       0.12352800 
I       3.47246208       4.61922820      26.34895768       53       0.04496200      -0.18864800       0.11254600 
I       3.38832367      15.65301933       7.34390487       53      -0.08807600      -0.38240200       0.01698500 
I       3.52977156      14.91118176      26.31725597       53       0.10251400       0.48968100       0.23944600 
I       8.27053399       4.44923367       7.53992080       53       0.00093900       0.25627800       0.18504600 
I       7.99446367       4.28280191      26.43166466       53       0.04694100       0.16283200       0.34754100 
I       8.25554841      15.24126829       7.37408729       53      -0.05793000      -0.16588900       0.00074000 
I       8.20502292      15.18345830      26.46434962       53       0.01342400      -0.08702500      -0.02069300 
I      12.46095346       4.32485236       7.86275641       53       0.22075700      -0.06729400      -0.16806000 
I      13.00905254       3.95120991      26.66066664       53       0.16360500       0.08860200       0.10822100 
I      13.00948592      15.21641079       6.88023146       53      -0.02841900       0.24145800       0.18745000 
I      13.03276194      15.14859561      26.44100054       53       0.16155100      -0.03648200       0.12822000 
I      17.96561721       4.33818834       7.50960116       53      -0.19728800       0.02171600      -0.15720700 
I      17.42031879       4.55965212      26.21332633       53       0.15440500      -0.33586800       0.28642400 
I      17.91974337      15.58551610       7.48815539       53      -0.14474300       0.22784300      -0.06614600 
I      17.43811491      15.33316603      26.24660854       53      -0.01779500       0.15849900      -0.10708300 
I       1.38318883       3.37322456       3.87088996       53       0.12545200       0.54386700       0.04044300 
I       0.80379574       2.94559651      23.00120664       53       0.14195800       0.48330800       0.18159700 
I       0.90370455      14.23675659       3.49557521       53       0.12787200       0.23612200       0.08355400 
I       0.78318810      13.85738053      23.38928085       53      -0.21199700       0.15631300      -0.27018200 
I       5.89932452       3.74011955       3.72510337       53       0.05559400       0.06253300       0.37118900 
I       5.88221154       3.54511944      22.98752612       53      -0.17612500      -0.14289600       0.06058900 
I       5.47293342      14.35493142       3.72407471       53       0.25251000      -0.51862000       0.03889500 
I       6.12969179      13.85621861      22.71521601       53      -0.13577800       0.11132300       0.84766500 
I      10.47687345       2.98399632       4.56397306       53       0.05380400       0.54662600       0.49496100 
I      10.46415249       3.31342538      23.02222298       53       0.13656100      -0.00914400       0.18442600 
I      11.39091983      13.74010405       3.33403697       53      -0.16740900       0.47685800       0.56794000 
I      10.93611536      13.66433210      22.36601349       53       0.01720600       0.15646500       0.05251700 
I      15.03467064       3.56681694       3.91075575       53      -0.34240500      -0.28534600       0.18064800 
I      14.65404085       2.65313286      23.23386715       53       0.42618500       0.11011700      -0.34656500 
I      15.71336837      14.44110345       3.34783002       53       0.16634800      -0.11146900       0.26299100 
I      15.24996447      13.44703921      22.72293388       53       0.01060200       0.32963900      -0.24090500 
I       3.80498895       7.55760537      15.53147521       53      -0.33821100      -0.27089200       0.29722400 
I       3.02002785       6.89592190      33.92353388       53       0.01052500       0.54592700       0.29210800 
I       3.43902093      18.72314028      15.13425565       53       0.07355600      -0.04703600      -0.41428300 
I       4.38525077      18.78375982      34.33923467       53      -0.45255100      -0.10168300      -0.12934600 
I       7.96389328       7.32162690      15.09828927       53       0.24688000       0.51830600      -0.19202800 
I       7.71924035       6.98850080      34.18799976       53      -0.05928900       0.38852700      -0.30134300 
I       8.07735920      18.73070514      15.50508559       53      -0.00680200      -0.13518400      -0.06300400 
I       8.23216281      17.65638808      34.65790926       53       0.59635400       0.21623800      -0.69930700 
I      13.13268753       7.74187667      14.86133940       53      -0.11263500       0.14652300      -0.02762000 
I      12.90617130       7.66747988      33.77923498       53      -0.10572000      -0.35124200       0.13084300 
I      13.01911204      18.53109977      15.09505029       53      -0.01528500      -0.49764800      -0.64169200 
I      12.78756409      17.99667330      34.12932696       53      -0.06749800      -0.10963100       0.21286700 
I      18.76321437       8.10796907      15.04422864       53      -0.07904700      -0.46462800       0.06818200 
I      17.19370976       7.75490169      34.34170166       53       0.36569500       0.04649000      -0.12588500 
I      17.55840331      18.83303750      15.02069397       53      -0.17154800       0.28272000      -0.31095200 
I      17.73625787      19.21688160      33.92044791       53       0.05958400      -0.48189200      -0.08638900 
I       0.86502931       8.10800560       5.49659544       53      -0.20743000      -0.35020000       0.04207900 
I       0.31731424       7.66841673      24.72348322       53       0.03136100       0.52029600      -1.10263100 
I       1.42261828      19.13908097       5.76831521       53       0.55646100       0.57922000       0.42038900 
I       0.79808187      18.82404418      24.75196075       53       0.28292200       0.11510500       0.09318300 
I       6.20126324       8.35348678       5.42324901       53      -0.14715600      -0.32290000      -0.22954000 
I       5.62671035       7.68370834      24.57209134       53       0.28383700       0.32028200       0.08640600 
I       6.22327861      18.73373088       5.34305345       53      -0.12724400      -0.05981700       0.39453900 
I       4.89989983      18.66447736      24.18816629       53       0.69315800       0.35857000       0.62476100 
I      10.71580560       8.84973655       5.75164547       53      -0.03002300      -0.14566400       0.23508500 
I      10.57031418       7.60110699      25.30609554       53      -0.36788000      -0.02296500      -0.42409900 
I      10.81853679      18.95373658       5.10182707       53       0.17028000      -0.19598800      -0.27033500 
I      10.69644281      18.09848344      24.32049351       53       0.02747400       0.31463400      -0.09985600 
I      15.60151750       7.98126491       5.67991410       53      -0.27437000      -0.33700500      -0.01132700 
I      15.22146719       7.91009130      25.07127208       53      -0.19599200       0.18656200      -0.61753000 
I      15.89681044      19.47647272       4.83244102       53       0.24539700      -0.18843800       0.21001500 
I      15.37236547      19.17891122      24.90820962       53       0.22229500       0.02184700      -0.10591300 
I       3.48508234       1.94918571      12.97758085       53       0.12914100      -0.21669900       0.20861200 
I       3.65431279       2.04013674      32.29349957       53      -0.34247200      -0.36684000      -0.18815000 
I       3.25063995      12.86709428      13.53863980       53       0.36050600       0.15884000       0.30023000 
I       2.89721223      12.12296938      32.02898729       53      -0.02849900       0.17304900      -0.09466000 
I       8.68567011       2.20749744      13.80737035       53       0.00943900       0.47984100       0.09298900 
I       8.70988890       1.83710680      32.55083101       53      -0.26520300      -0.17614600      -0.25038400 
I       9.55983984      12.32039108      13.16237438       53      -0.43015300      -0.12330600       0.49442900 
I       8.33391273      12.32123118      32.25793596       53       0.34693000       0.04216800       0.30449500 
I      13.24415834       2.06151735      13.78612597       53      -0.21803900       0.34345500       0.21698300 
I      12.77352029       1.45379974      32.71315209       53       0.28527800       0.24977600      -0.25908300 
I      13.30549754      13.08284518      13.25502041       53       0.06609000       0.37962500       0.05690800 
I      12.89632998      12.78230531      32.62451603       53      -0.03026000       0.03481700      -0.25683600 
I      17.30263262       2.00180702      13.55349112       53       0.12232900      -0.17457400       0.16015000 
I      17.74546541       1.79916307      32.32143612       53       0.08478900      -0.26935300      -0.44888100 
I      17.67324735      12.95655958      13.32030542       53       0.08388600      -0.09746400       0.19021600 
I      17.72250233      12.41943412      31.82803539       53      -0.00537100      -0.12109500       0.07073000 
H       2.98281169       1.06239868       5.56296932        1       0.84187200       1.77771200       1.21659800 
H       4.82153748       1.61669833      25.03745778        1       1.47167200       0.74708600      -0.22321200 
H       3.72378546      10.48781253       5.29028111        1      -0.74936500       1.13259600      -0.37034800 
H       2.39635129      10.02877695      24.38719613        1       1.14513900       0.49032800      -0.14912700 
H       8.31081441       1.47005485       6.51634543        1       0.23920800       2.42102200       1.11480300 
H       8.00697929      -0.65247198      25.09474061        1       0.47793800      -0.82800000      -0.67816900 
H       7.91871442      12.98514966       5.84221742        1      -0.45362800       1.23439400      -0.20285900 
H       9.00292709      11.08225734      23.99950099        1      -0.54745000      -0.29736000       0.97324500 
H      14.26263486       0.13878049       6.67433274        1      -0.78369600      -0.71882900       1.18543200 
H      12.65974143      -0.10906304      23.95862333        1       0.60881000      -1.20248500      -1.08914500 
H      14.89671544      10.86484994       6.42498374        1       0.12020700      -0.36104800       0.36202400 
H      13.42442954      11.69613010      24.68925232        1      -0.39435800       1.03048000       0.74515200 
H      19.02738311       2.13659925       5.58503307        1       0.45675800      -2.17791700       0.03386500 
H      18.45215202       0.17818921      24.12669975        1      -0.88610000       0.81500300       2.68723000 
H      17.15320230      10.09091578       5.11470598        1      -0.10023900       1.86893800       0.25401600 
H      17.61734660      11.41486517      24.00222367        1      -0.19378800       0.34895700      -0.01767300 
H       1.52302068       9.61865676      11.27005984        1       0.22579300       0.01784000       0.95558800 
H       0.45641063       7.46521008      31.62844187        1      -0.41959300       0.04728500       0.81455600 
H       1.44167307      20.97105042      11.84605501        1      -0.21321100       1.54263800      -1.27314800 
H       2.71336147      19.12669368      31.53371484        1      -1.75754700       0.07523100      -0.22439800 
H       6.30768258       9.03279065      12.49184567        1       0.52824000      -0.22363100      -0.68216000 
H       5.92519883       8.30792983      31.71828131        1      -0.91606900      -1.31004000       2.28073600 
H       7.04187039      22.10417452      12.10243776        1      -0.83272700       0.07378100       0.25411000 
H       6.70394062      19.07562424      31.61560640        1      -1.08042000       1.19284100      -0.16351700 
H      11.35269870      10.25263764      12.07747758        1       1.06557500       1.04887400      -1.50604100 
H      11.56137636       9.32937780      31.37448761        1       3.60193700       0.20009000       0.10766700 
H      10.17264050      20.43753315      12.01702488        1       1.36665800      -0.49858300       0.85334000 
H      10.26594697      19.96998007      30.66007129        1      -0.61968400       0.16723500       0.04623200 
H      16.09739016      10.58065107      12.21713767        1      -1.32933500      -1.02400200       0.58830200 
H      14.84593130       9.50349879      30.22885183        1       0.05962600       0.16801200       0.87267700 
H      14.24577065      21.31565460      10.86186664        1       0.80784400      -0.65724500       2.23374400 
H      15.69830974      18.94888947      31.02503039        1      -0.10860100       0.18669300       0.80006400 
H       3.15515771       6.87103774       1.69941617        1       0.65921900       0.03951300       0.50694100 
H       3.23301165       7.62384400      21.50509386        1      -0.44233000      -1.90110900       1.48183900 
H       3.80603439      17.04493099       1.89743906        1      -0.14918800      -0.89140800      -0.22087700 
H       3.54759235      17.96189353      21.67787326        1      -1.55375200      -1.46729700       0.64975500 
H       8.51611982       7.34072413       2.78790437        1      -0.38001600      -0.36586100       0.08729300 
H       9.06828713       6.99784260      21.66262903        1       0.38653600       0.45760000       0.45762500 
H       9.51443195      17.73197642       2.67030804        1       2.34863200       1.66437100       0.86505800 
H       6.58782507      17.14657034      21.77247887        1       1.50140900      -0.68156400       0.46563100 
H      12.35733182       7.29141881       1.90792107        1       0.38806100      -0.85196600       1.75825700 
H      12.97056981       6.20145475      21.33961277        1       1.61724300       0.22023800      -0.19437500 
H      13.60403241      17.35993618       1.64259831        1      -0.94885200       1.01539000       2.12926000 
H      13.45025548      17.36554343      21.50785997        1      -0.07129100       0.23531700      -0.43686200 
H      16.59597958       6.98882361       2.50152775        1      -2.92367900       2.17320700       0.30006100 
H      17.58026666       6.61065390      20.95275675        1       0.31898900       0.01340200       1.12268800 
H      18.61338720      18.85133511       2.47272839        1      -0.33278100      -0.42170900       0.96669100 
H      17.85312565      17.83600280      20.81735739        1      -0.44585100      -0.69705000       1.18755600 
H       2.22032699       3.39436529      15.59058533        1      -0.94868300       0.97015800      -0.18808400 
H       1.50426205       3.75680804      33.69106685        1       1.13074400      -0.25673000       0.13678100 
H       0.98749546      16.93611277      15.46678450        1       0.09194800       1.05158700       0.20320900 
H       1.34421645      15.70477783      33.58242139        1      -2.10452600      -1.31878900       0.48854900 
H       5.46599050       4.68039859      14.60175124        1      -0.13793000      -0.49345000       0.21787300 
H       5.36511523       4.53749854      33.29964704        1      -0.27604600      -1.02711400       1.29501200 
H       5.28435697      14.05442808      15.55807215        1       0.15280900       1.14415200       0.82425500 
H       6.87504080      14.08517123      33.92775610        1      -0.64023200      -0.18441800       0.86585300 
H      11.68492843       5.34058251      15.87798863        1       1.18543900       0.84260700      -0.27879900 
H      11.30373593       3.32546617      35.52080524        1      -1.13608000       0.91298000       0.30891100 
H      11.84140632      14.71898428      16.75946752        1      -0.92181000       1.31774400      -0.34600500 
H      10.99355120      14.12918915      33.84875010        1      -2.31014700       0.30943500       2.85473000 
H      16.71548909       5.57647806      14.85761571        1      -0.87255600      -0.26264200       0.50054900 
H      16.60940441       3.42723583      35.22747090        1       0.22098000       0.33515300       0.50199500 
H      16.22154540      16.30434518      16.01271472        1      -0.52022900       1.16722300      -0.91283700 
H      16.61343215      15.31462952      33.68317721        1       0.56276200       0.60248700      -0.33079300 
H       4.12901215       2.07077721       6.85229095        1       0.38427100       0.97528600      -0.74416200 
H       3.19509853       1.64524497      25.47071184        1      -0.39536700      -0.49614400      -0.97188800 
H       1.92720094      10.70833848       5.28943311        1      -1.16080100      -0.60964700      -1.01625400 
H       3.83740637      10.10678588      25.43113135        1       0.03907200      -0.37152900       0.44013200 