320
Lattice="36.70028118634745 0.20205807547936527 0.9602754909858505 -0.11391901857253953 21.447500418429012 0.4270748515406278 -0.5272859817009051 -0.37998655406022835 19.601768391849955" Properties=species:S:1:pos:R:3:forces:R:3 energy=-992.0114929795184 stress="0.005319647612204014 1.9322524351787947e-05 -2.9953781765309137e-05 1.9322524351787947e-05 0.005026077514728908 2.461125781782732e-05 -2.9953781765309137e-05 2.461125781782732e-05 0.005456478098615533" free_energy=-992.0114929795184 pbc="T T T"
Cs       1.66971091       3.64741722       3.50729540      -0.00001955       0.00001013       0.00002900
Cs       8.04728583      12.79329834       1.40304176       0.00000751       0.00000566       0.00001765
Cs      35.52664174       9.19598639       4.49983374       0.00000889       0.00000117      -0.00000557
Cs      10.89059188       7.44686184       1.37085550      -0.00000150      -0.00001601      -0.00001892
Cs       1.53785544       3.55247006       8.40777679      -0.00000238      -0.00001083      -0.00001093
Cs       7.91549433      12.69830880       6.30352497      -0.00001827       0.00000899      -0.00001619
Cs      35.39482199       9.10097114       9.40026906       0.00000656      -0.00000046       0.00000333
Cs      10.75872878       7.35180994       6.27126026       0.00002350       0.00001497       0.00000967
Pb      33.53409688       4.77060512       1.90684948      -0.00001619       0.00001924      -0.00001922
Pb      12.88317263      11.87221456       3.96380492       0.00001695      -0.00001264      -0.00001749
Pb       3.78325475       9.96912052       1.23563857      -0.00000517       0.00000280      -0.00000275
Pb       5.93366272       6.47161495       3.67478336       0.00000932       0.00000771       0.00001140
Pb      33.40227233       4.67563975       6.80726948       0.00001149       0.00000043       0.00002400
Pb      12.75136527      11.77721378       8.86422917      -0.00000565      -0.00002014       0.00001167
Pb       3.65145192       9.87420077       6.13608878       0.00000627      -0.00004558      -0.00000992
Pb       5.80185735       6.37662082       8.57521066      -0.00001509       0.00002432      -0.00001342
I       32.35238584       6.58227393       4.36379471       0.00000774      -0.00001464       0.00001559
I       32.41499993      10.16159746       1.98696743       0.00000458      -0.00000208       0.00000005
I        4.81306891      11.79182980       3.75148667       0.00001643       0.00001033       0.00000899
I        4.90388829       4.64894730       1.15888175      -0.00001419      -0.00000437       0.00000271
I       12.10497670       3.23301032       1.31541434      -0.00000540      -0.00000052       0.00000753
I       34.31228628      13.40981013       4.55521155       0.00001170      -0.00000766       0.00001566
I        6.87878051       8.56485319       1.28828696       0.00000525       0.00000242       0.00000168
I        2.83815282       7.87591376       3.62216964       0.00000950      -0.00000355      -0.00001168
I       36.31765452       6.19392002       2.00790351       0.00000038       0.00001783      -0.00000137
I       10.09963052      10.44888331       3.86277353      -0.00004165       0.00000252      -0.00000324
I        0.98379947      11.36283425       1.19056083       0.00000667      -0.00000709      -0.00000327
I        8.73311959       5.07789750       3.71983395       0.00000501       0.00001222      -0.00001296
I       32.22057605       6.48726029       9.26425660      -0.00000114       0.00000293      -0.00000972
I       32.28317218      10.06656739       6.88739599      -0.00000450       0.00002665       0.00001692
I        4.68125313      11.69683434       8.65201082       0.00000022       0.00001026      -0.00001653
I        4.77206116       4.55391609       6.05933128       0.00001227       0.00001010      -0.00000036
I       11.97316578       3.13802116       6.21586431      -0.00002622       0.00000973       0.00000886
I       34.18046956      13.31482731       9.45565808      -0.00000003      -0.00001312      -0.00002872
I        6.74696071       8.46988471       6.18872993       0.00000094      -0.00002894      -0.00000973
I        2.70632591       7.78091986       8.52252332       0.00002390      -0.00001190       0.00001911
I       36.18583161       6.09894499       6.90830580      -0.00000222      -0.00000849       0.00000714
I        9.96780967      10.35387901       8.76319830      -0.00000422       0.00000642       0.00000523
I        0.85198043      11.26785572       6.09101268      -0.00000726       0.00001808       0.00000313
I        8.60132641       4.98294707       8.62028852      -0.00000450      -0.00001696      -0.00000721
Cs       1.40606792       3.45742394      13.30817960      -0.00001955       0.00001013       0.00002900
Cs       7.78364284      12.60330506      11.20392596       0.00000751       0.00000566       0.00001765
Cs      35.26299875       9.00599311      14.30071794       0.00000889       0.00000117      -0.00000557
Cs      10.62694889       7.25686856      11.17173970      -0.00000150      -0.00001600      -0.00001893
Cs       1.27421245       3.36247678      18.20866099      -0.00000238      -0.00001083      -0.00001093
Cs       7.65185134      12.50831552      16.10440917      -0.00001826       0.00000899      -0.00001620
Cs      35.13117900       8.91097786      19.20115326       0.00000656      -0.00000045       0.00000333
Cs      10.49508579       7.16181666      16.07214446       0.00002350       0.00001497       0.00000967
Pb      33.27045389       4.58061184      11.70773368      -0.00001620       0.00001924      -0.00001924
Pb      12.61952964      11.68222128      13.76468912       0.00001695      -0.00001265      -0.00001751
Pb       3.51961176       9.77912724      11.03652277      -0.00000516       0.00000280      -0.00000276
Pb       5.67001973       6.28162167      13.47566756       0.00000932       0.00000770       0.00001140
Pb      33.13862934       4.48564647      16.60815368       0.00001148       0.00000044       0.00002399
Pb      12.48772228      11.58722050      18.66511337      -0.00000565      -0.00002013       0.00001165
Pb       3.38780893       9.68420749      15.93697298       0.00000627      -0.00004558      -0.00000992
Pb       5.53821436       6.18662754      18.37609486      -0.00001509       0.00002433      -0.00001343
I       32.08874285       6.39228065      14.16467891       0.00000774      -0.00001463       0.00001559
I       32.15135694       9.97160418      11.78785163       0.00000458      -0.00000207       0.00000003
I        4.54942592      11.60183652      13.55237087       0.00001643       0.00001033       0.00000898
I        4.64024530       4.45895402      10.95976595      -0.00001419      -0.00000436       0.00000270
I       11.84133371       3.04301704      11.11629854      -0.00000540      -0.00000052       0.00000752
I       34.04864329      13.21981685      14.35609575       0.00001170      -0.00000765       0.00001565
I        6.61513752       8.37485991      11.08917116       0.00000525       0.00000242       0.00000168
I        2.57450983       7.68592048      13.42305384       0.00000950      -0.00000355      -0.00001168
I       36.05401153       6.00392674      11.80878771       0.00000038       0.00001784      -0.00000137
I        9.83598753      10.25889003      13.66365773      -0.00004165       0.00000252      -0.00000324
I        0.72015648      11.17284097      10.99144503       0.00000667      -0.00000708      -0.00000327
I        8.46947660       4.88790422      13.52071815       0.00000501       0.00001222      -0.00001296
I       31.95693306       6.29726701      19.06514080      -0.00000115       0.00000294      -0.00000973
I       32.01952919       9.87657411      16.68828019      -0.00000450       0.00002665       0.00001690
I        4.41761014      11.50684106      18.45289502       0.00000023       0.00001028      -0.00001654
I        4.50841817       4.36392281      15.86021548       0.00001227       0.00001010      -0.00000037
I       11.70952279       2.94802788      16.01674851      -0.00002623       0.00000974       0.00000885
I       33.91682657      13.12483403      19.25654228      -0.00000003      -0.00001311      -0.00002873
I        6.48331772       8.27989143      15.98961413       0.00000094      -0.00002894      -0.00000974
I        2.44268292       7.59092658      18.32340752       0.00002390      -0.00001190       0.00001911
I       35.92218862       5.90895171      16.70919000      -0.00000222      -0.00000850       0.00000714
I        9.70416668      10.16388573      18.56408250      -0.00000422       0.00000642       0.00000523
I        0.58833744      11.07786244      15.89189688      -0.00000726       0.00001808       0.00000313
I        8.33768342       4.79295379      18.42117272      -0.00000450      -0.00001696      -0.00000721
Cs       1.61275140      14.37116743       3.72083283      -0.00001955       0.00001013       0.00002900
Cs       8.10424534       2.06954813       1.18950433       0.00000751       0.00000566       0.00001765
Cs      35.46968223      19.91973659       4.71337117       0.00000889       0.00000117      -0.00000558
Cs      10.83363237      18.17061205       1.58439293      -0.00000151      -0.00001601      -0.00001893
Cs       1.48089593      14.27622027       8.62131422      -0.00000237      -0.00001084      -0.00001093
Cs       7.97245384       1.97455859       6.08998754      -0.00001827       0.00000899      -0.00001619
Cs      35.33786248      19.82472134       9.61380649       0.00000656      -0.00000045       0.00000333
Cs      10.70176927      18.07556015       6.48479769       0.00002350       0.00001497       0.00000967
Pb      33.47713737      15.49435532       2.12038691      -0.00001620       0.00001925      -0.00001925
Pb      12.94013214       1.14846435       3.75026749       0.00001694      -0.00001264      -0.00001749
Pb       3.72629524      20.69287073       1.44917600      -0.00000516       0.00000279      -0.00000277
Pb       5.87670321      17.19536516       3.88832079       0.00000931       0.00000770       0.00001140
Pb      33.34531282      15.39938995       7.02080691       0.00001149       0.00000045       0.00002399
Pb      12.80832478       1.05346357       8.65069174      -0.00000566      -0.00002014       0.00001167
Pb       3.59449241      20.59795098       6.34962621       0.00000627      -0.00004558      -0.00000993
Pb       5.74489784      17.10037103       8.78874809      -0.00001508       0.00002432      -0.00001343
I       32.29542633      17.30602413       4.57733214       0.00000774      -0.00001463       0.00001559
I       32.35804042      20.88534766       2.20050486       0.00000457      -0.00000206       0.00000004
I        4.87002842       1.06807959       3.53794924       0.00001643       0.00001034       0.00000899
I        4.84692878      15.37269751       1.37241918      -0.00001418      -0.00000436       0.00000270
I       12.04801719      13.95676053       1.52895177      -0.00000540      -0.00000052       0.00000752
I       34.36924579       2.68605992       4.34167413       0.00001170      -0.00000765       0.00001565
I        6.82182100      19.28860340       1.50182439       0.00000525       0.00000242       0.00000168
I        2.78119331      18.59966397       3.83570707       0.00000950      -0.00000355      -0.00001169
I       36.26069501      16.91767022       2.22144094       0.00000038       0.00001784      -0.00000137
I       10.04267101      21.17263352       4.07631096      -0.00004165       0.00000252      -0.00000325
I        1.04075898       0.63908404       0.97702340       0.00000666      -0.00000708      -0.00000326
I        8.67616008      15.80164771       3.93337138       0.00000502       0.00001222      -0.00001296
I       32.16361654      17.21101049       9.47779403      -0.00000115       0.00000294      -0.00000973
I       32.22621267      20.79031759       7.10093342      -0.00000450       0.00002666       0.00001690
I        4.73821264       0.97308413       8.43847339       0.00000023       0.00001027      -0.00001652
I        4.71510165      15.27766630       6.27286871       0.00001226       0.00001010      -0.00000037
I       11.91620627      13.86177137       6.42940174      -0.00002623       0.00000973       0.00000885
I       34.23742907       2.59107710       9.24212066      -0.00000003      -0.00001310      -0.00002873
I        6.69000120      19.19363492       6.40226736       0.00000094      -0.00002894      -0.00000974
I        2.64936640      18.50467007       8.73606075       0.00002390      -0.00001190       0.00001910
I       36.12887210      16.82269519       7.12184323      -0.00000222      -0.00000849       0.00000714
I        9.91085016      21.07762922       8.97673573      -0.00000422       0.00000642       0.00000522
I        0.90893994       0.54410551       5.87747525      -0.00000727       0.00001808       0.00000314
I        8.54436690      15.70669728       8.83382595      -0.00000450      -0.00001697      -0.00000721
Cs       1.34910841      14.18117415      13.52171702      -0.00001955       0.00001013       0.00002900
Cs       7.84060235       1.87955485      10.99038853       0.00000751       0.00000566       0.00001765
Cs      35.20603924      19.72974332      14.51425536       0.00000889       0.00000117      -0.00000557
Cs      10.56998938      17.98061877      11.38527712      -0.00000150      -0.00001601      -0.00001892
Cs       1.21725294      14.08622699      18.42219841      -0.00000238      -0.00001083      -0.00001093
Cs       7.70881085       1.78456531      15.89087174      -0.00001827       0.00000899      -0.00001620
Cs      35.07421949      19.63472807      19.41469068       0.00000656      -0.00000046       0.00000334
Cs      10.43812628      17.88556687      16.28568188       0.00002350       0.00001497       0.00000967
Pb      33.21349438      15.30436205      11.92127110      -0.00001619       0.00001924      -0.00001922
Pb      12.67648915       0.95847107      13.55115169       0.00001695      -0.00001264      -0.00001750
Pb       3.46265225      20.50287745      11.25006019      -0.00000516       0.00000280      -0.00000275
Pb       5.61306022      17.00537188      13.68920498       0.00000932       0.00000770       0.00001140
Pb      33.08166983      15.20939668      16.82169110       0.00001148       0.00000044       0.00002401
Pb      12.54468179       0.86347029      18.45157594      -0.00000565      -0.00002013       0.00001166
Pb       3.33084942      20.40795770      16.15051040       0.00000627      -0.00004558      -0.00000992
Pb       5.48125485      16.91037775      18.58963228      -0.00001509       0.00002433      -0.00001341
I       32.03178334      17.11603086      14.37821633       0.00000774      -0.00001464       0.00001559
I       32.09439743      20.69535439      12.00138905       0.00000458      -0.00000208       0.00000005
I        4.60638543       0.87808631      13.33883344       0.00001643       0.00001034       0.00000898
I        4.58328579      15.18270423      11.17330337      -0.00001419      -0.00000437       0.00000271
I       11.78437420      13.76676725      11.32983596      -0.00000540      -0.00000052       0.00000753
I       34.10560279       2.49606664      14.14255832       0.00001172      -0.00000765       0.00001566
I        6.55817801      19.09861012      11.30270858       0.00000526       0.00000243       0.00000169
I        2.51755032      18.40967069      13.63659126       0.00000950      -0.00000355      -0.00001169
I       35.99705202      16.72767695      12.02232513       0.00000038       0.00001783      -0.00000136
I        9.77902802      20.98264024      13.87719515      -0.00004165       0.00000252      -0.00000324
I        0.77711599       0.44909076      10.77790760       0.00000667      -0.00000708      -0.00000327
I        8.41251709      15.61165443      13.73425557       0.00000501       0.00001222      -0.00001296
I       31.89997355      17.02101722      19.27867822      -0.00000114       0.00000293      -0.00000972
I       31.96256968      20.60032432      16.90181761      -0.00000449       0.00002665       0.00001692
I        4.47456965       0.78309085      18.23935759       0.00000023       0.00001027      -0.00001653
I        4.45145866      15.08767302      16.07375290       0.00001227       0.00001010      -0.00000036
I       11.65256328      13.67177809      16.23028593      -0.00002623       0.00000973       0.00000887
I       33.97378607       2.40108382      19.04300485      -0.00000002      -0.00001311      -0.00002872
I        6.42635821      19.00364164      16.20315155       0.00000094      -0.00002895      -0.00000973
I        2.38572341      18.31467679      18.53694494       0.00002390      -0.00001190       0.00001911
I       35.86522911      16.63270192      16.92272742      -0.00000222      -0.00000849       0.00000714
I        9.64720717      20.88763594      18.77761992      -0.00000422       0.00000642       0.00000523
I        0.64529695       0.35411223      15.67835945      -0.00000727       0.00001809       0.00000313
I        8.28072391      15.51670400      18.63471014      -0.00000450      -0.00001696      -0.00000721
Cs      20.01985150       3.74844626       3.98743315      -0.00001955       0.00001013       0.00002900
Cs      26.39742642      12.89432738       1.88317951       0.00000752       0.00000566       0.00001765
Cs      17.17650114       9.09495735       4.01969600       0.00000889       0.00000117      -0.00000557
Cs      29.24073247       7.54789088       1.85099325      -0.00000150      -0.00001601      -0.00001893
Cs      19.88799603       3.65349910       8.88791454      -0.00000237      -0.00001084      -0.00001093
Cs      26.26563492      12.79933784       6.78366272      -0.00001827       0.00000899      -0.00001620
Cs      17.04468139       8.99994210       8.92013132       0.00000656      -0.00000045       0.00000333
Cs      29.10886937       7.45283898       6.75139801       0.00002350       0.00001497       0.00000967
Pb      15.18395628       4.66957608       1.42671174      -0.00001619       0.00001924      -0.00001924
Pb      31.23331322      11.97324360       4.44394267       0.00001696      -0.00001265      -0.00001751
Pb      22.13339534      10.07014956       1.71577632      -0.00000517       0.00000280      -0.00000277
Pb      24.28380331       6.57264399       4.15492111       0.00000931       0.00000770       0.00001140
Pb      15.05213173       4.57461071       6.32713174       0.00001149       0.00000044       0.00002399
Pb      31.10150586      11.87824282       9.34436692      -0.00000564      -0.00002014       0.00001165
Pb      22.00159251       9.97522981       6.61622653       0.00000627      -0.00004558      -0.00000992
Pb      24.15199794       6.47764986       9.05534841      -0.00001509       0.00002432      -0.00001343
I       14.00224524       6.48124489       3.88365697       0.00000774      -0.00001464       0.00001559
I       14.06485933      10.06056842       1.50682969       0.00000459      -0.00000208       0.00000004
I       23.16320950      11.89285884       4.23162442       0.00001643       0.00001033       0.00000898
I       23.25402888       4.74997634       1.63901950      -0.00001419      -0.00000436       0.00000270
I       30.45511729       3.33403936       1.79555209      -0.00000539      -0.00000052       0.00000752
I       15.96214568      13.30878109       4.07507381       0.00001171      -0.00000765       0.00001565
I       25.22892110       8.66588223       1.76842471       0.00000525       0.00000242       0.00000168
I       21.18829341       7.97694280       4.10230739       0.00000950      -0.00000355      -0.00001168
I       17.96751392       6.09289098       1.52776577       0.00000039       0.00001784      -0.00000137
I       28.44977111      10.54991235       4.34291128      -0.00004165       0.00000252      -0.00000324
I       19.33394006      11.46386329       1.67069858       0.00000667      -0.00000709      -0.00000327
I       27.08326018       5.17892654       4.19997170       0.00000502       0.00001222      -0.00001296
I       13.87043545       6.38623125       8.78411886      -0.00000114       0.00000293      -0.00000973
I       13.93303158       9.96553835       6.40725825      -0.00000448       0.00002664       0.00001690
I       23.03139372      11.79786338       9.13214857       0.00000023       0.00001027      -0.00001654
I       23.12220175       4.65494513       6.53946903       0.00001226       0.00001010      -0.00000037
I       30.32330637       3.23905020       6.69600206      -0.00002621       0.00000973       0.00000885
I       15.83032896      13.21379827       8.97552034      -0.00000002      -0.00001310      -0.00002873
I       25.09710130       8.57091375       6.66886768       0.00000094      -0.00002894      -0.00000973
I       21.05646650       7.88194890       9.00266107       0.00002390      -0.00001191       0.00001910
I       17.83569101       5.99791595       6.42816806      -0.00000222      -0.00000849       0.00000714
I       28.31795026      10.45490805       9.24333605      -0.00000421       0.00000642       0.00000523
I       19.20212102      11.36888476       6.57115043      -0.00000726       0.00001808       0.00000313
I       26.95146700       5.08397611       9.10042627      -0.00000450      -0.00001696      -0.00000721
Cs      19.75620851       3.55845298      13.78831734      -0.00001955       0.00001013       0.00002900
Cs      26.13378343      12.70433410      11.68406370       0.00000751       0.00000566       0.00001765
Cs      16.91285815       8.90496407      13.82058019       0.00000889       0.00000117      -0.00000557
Cs      28.97708948       7.35789760      11.65187744      -0.00000150      -0.00001601      -0.00001892
Cs      19.62435304       3.46350582      18.68879873      -0.00000238      -0.00001083      -0.00001093
Cs      26.00199193      12.60934456      16.58454691      -0.00001827       0.00000899      -0.00001619
Cs      16.78103840       8.80994882      18.72101551       0.00000657      -0.00000046       0.00000333
Cs      28.84522638       7.26284570      16.55228220       0.00002350       0.00001497       0.00000967
Pb      14.92031329       4.47958280      11.22759593      -0.00001619       0.00001924      -0.00001923
Pb      30.96967023      11.78325032      14.24482686       0.00001696      -0.00001265      -0.00001749
Pb      21.86975235       9.88015628      11.51666051      -0.00000517       0.00000281      -0.00000275
Pb      24.02016032       6.38265071      13.95580530       0.00000931       0.00000770       0.00001140
Pb      14.78848874       4.38461743      16.12801593       0.00001149       0.00000043       0.00002400
Pb      30.83786287      11.68824954      19.14525111      -0.00000564      -0.00002013       0.00001167
Pb      21.73794952       9.78523653      16.41711072       0.00000627      -0.00004558      -0.00000992
Pb      23.88835495       6.28765658      18.85623260      -0.00001509       0.00002433      -0.00001341
I       13.73860225       6.29125161      13.68454116       0.00000774      -0.00001464       0.00001559
I       13.80121634       9.87057514      11.30771388       0.00000458      -0.00000208       0.00000005
I       22.89956651      11.70286556      14.03250861       0.00001643       0.00001034       0.00000899
I       22.99038589       4.55998306      11.43990369      -0.00001419      -0.00000437       0.00000271
I       30.19147430       3.14404608      11.59643628      -0.00000539      -0.00000052       0.00000753
I       15.69850269      13.11878781      13.87595800       0.00001171      -0.00000764       0.00001566
I       24.96527811       8.47588895      11.56930890       0.00000526       0.00000243       0.00000169
I       20.92465042       7.78694952      13.90319158       0.00000950      -0.00000355      -0.00001168
I       17.70387093       5.90289770      11.32864996       0.00000039       0.00001784      -0.00000137
I       28.18612812      10.35991907      14.14379547      -0.00004165       0.00000252      -0.00000324
I       19.07029707      11.27387001      11.47158277       0.00000667      -0.00000709      -0.00000326
I       26.81961719       4.98893326      14.00085589       0.00000501       0.00001222      -0.00001296
I       13.60679246       6.19623797      18.58500305      -0.00000114       0.00000294      -0.00000972
I       13.66938859       9.77554507      16.20814244      -0.00000449       0.00002664       0.00001692
I       22.76775073      11.60787010      18.93303276       0.00000023       0.00001027      -0.00001653
I       22.85855876       4.46495185      16.34035322       0.00001227       0.00001010      -0.00000036
I       30.05966338       3.04905692      16.49688625      -0.00002622       0.00000973       0.00000887
I       15.56668597      13.02380499      18.77640453      -0.00000002      -0.00001310      -0.00002872
I       24.83345831       8.38092047      16.46975187       0.00000094      -0.00002894      -0.00000973
I       20.79282351       7.69195562      18.80354526       0.00002390      -0.00001190       0.00001912
I       17.57204802       5.80792267      16.22905225      -0.00000222      -0.00000849       0.00000714
I       28.05430727      10.26491477      19.04422024      -0.00000422       0.00000642       0.00000523
I       18.93847803      11.17889148      16.37203462      -0.00000726       0.00001808       0.00000313
I       26.68782401       4.89398283      18.90131046      -0.00000450      -0.00001696      -0.00000721
Cs      19.96289199      14.47219647       4.20097057      -0.00001955       0.00001013       0.00002900
Cs      26.45438593       2.17057717       1.66964208       0.00000751       0.00000566       0.00001765
Cs      17.11954163      19.81870756       4.23323342       0.00000889       0.00000117      -0.00000557
Cs      29.18377296      18.27164109       2.06453067      -0.00000150      -0.00001601      -0.00001893
Cs      19.83103652      14.37724931       9.10145196      -0.00000238      -0.00001083      -0.00001093
Cs      26.32259443       2.07558763       6.57012529      -0.00001827       0.00000899      -0.00001620
Cs      16.98772188      19.72369231       9.13366874       0.00000657      -0.00000046       0.00000333
Cs      29.05190986      18.17658919       6.96493543       0.00002350       0.00001497       0.00000967
Pb      15.12699677      15.39332629       1.64024916      -0.00001619       0.00001923      -0.00001923
Pb      31.29027273       1.24949339       4.23040524       0.00001696      -0.00001266      -0.00001749
Pb      22.07643583      20.79389977       1.92931374      -0.00000517       0.00000280      -0.00000275
Pb      24.22684380      17.29639420       4.36845853       0.00000932       0.00000771       0.00001140
Pb      14.99517222      15.29836092       6.54066916       0.00001149       0.00000043       0.00002401
Pb      31.15846537       1.15449261       9.13082949      -0.00000564      -0.00002014       0.00001166
Pb      21.94463300      20.69898002       6.82976395       0.00000627      -0.00004558      -0.00000992
Pb      24.09503843      17.20140007       9.26888583      -0.00001509       0.00002433      -0.00001342
I       13.94528573      17.20499510       4.09719439       0.00000774      -0.00001464       0.00001559
I       14.00789982      20.78431863       1.72036711       0.00000459      -0.00000209       0.00000005
I       23.22016901       1.16910863       4.01808699       0.00001643       0.00001034       0.00000898
I       23.19706937      15.47372655       1.85255692      -0.00001419      -0.00000437       0.00000271
I       30.39815778      14.05778957       2.00908951      -0.00000539      -0.00000052       0.00000753
I       16.01910519       2.58503088       3.86153638       0.00001171      -0.00000765       0.00001566
I       25.17196159      19.38963244       1.98196213       0.00000526       0.00000242       0.00000169
I       21.13133390      18.70069301       4.31584481       0.00000950      -0.00000355      -0.00001168
I       17.91055441      16.81664119       1.74130319       0.00000038       0.00001784      -0.00000137
I       28.39281160      21.27366256       4.55644870      -0.00004164       0.00000252      -0.00000324
I       19.39089957       0.74011308       1.45716115       0.00000667      -0.00000708      -0.00000327
I       27.02630067      15.90267675       4.41350912       0.00000501       0.00001222      -0.00001296
I       13.81347594      17.10998146       8.99765628      -0.00000114       0.00000293      -0.00000972
I       13.87607207      20.68928856       6.62079567      -0.00000448       0.00002664       0.00001691
I       23.08835323       1.07411317       8.91861114       0.00000022       0.00001027      -0.00001653
I       23.06524224      15.37869534       6.75300645       0.00001227       0.00001010      -0.00000036
I       30.26634686      13.96280041       6.90953948      -0.00002622       0.00000973       0.00000887
I       15.88728847       2.49004806       8.76198291      -0.00000002      -0.00001311      -0.00002872
I       25.04014179      19.29466396       6.88240510       0.00000094      -0.00002895      -0.00000973
I       20.99950699      18.60569911       9.21619849       0.00002390      -0.00001190       0.00001911
I       17.77873150      16.72166616       6.64170548      -0.00000222      -0.00000849       0.00000714
I       28.26099075      21.17865826       9.45687347      -0.00000421       0.00000642       0.00000523
I       19.25908053       0.64513455       6.35761300      -0.00000727       0.00001808       0.00000313
I       26.89450749      15.80772632       9.31396369      -0.00000450      -0.00001696      -0.00000721