768
Lattice="39.752234877220715 0.018098040130557276 0.23857123289509058 0.011986823753012701 23.473823132609837 0.46518865634276974 -0.15229296499885764 -0.20950384106830308 18.691998507703193" Properties=species:S:1:pos:R:3:forces:R:3 energy=-3661.7391525984362 stress="0.00397423441061491 5.738415753878551e-05 0.00013794861845882507 5.738415753878551e-05 0.003202481335956038 0.0001580178746392756 0.00013794861845882507 0.0001580178746392756 0.0038651358870005407" free_energy=-3661.7391525984362 pbc="T T T"
H        7.98060096      21.91379036       5.72520484       0.00000024      -0.00000532       0.00000213
H       12.41577144      10.20674820       2.93743870       0.00000401      -0.00000899      -0.00000286
H        2.51121643       4.32028910       4.97423068       0.00000049      -0.00001437      -0.00001473
H       17.94981331       4.31917953       2.96059436       0.00001496       0.00000972      -0.00000209
H        7.83658961      23.97203694      11.36899094       0.00000073      -0.00001014      -0.00000256
H       12.44231278       8.27812215       1.64140398       0.00000454       0.00000854       0.00000269
H        4.18425051       3.49736963      11.04433195      -0.00000289       0.00000376       0.00001429
H       17.93992958       2.35935579       4.20715929      -0.00000582      -0.00000748      -0.00002046
H        5.40359798      22.69612043       4.42586248       0.00001228      -0.00000862       0.00001076
H       14.14101800       7.95467214       1.96309570       0.00001377      -0.00000822      -0.00000027
H        5.06162247       5.02377342      10.94025780       0.00000011       0.00000303      -0.00000402
H       16.23190789       2.05207118       3.91231960      -0.00000801      -0.00002302       0.00001455
H        6.31581057      24.39145106       5.96357892       0.00000103      -0.00000186       0.00000282
H       15.24150918       9.49336290       3.61703750       0.00001962       0.00001024       0.00000735
H        5.09970584       5.07614968       6.26725281       0.00001074      -0.00000579      -0.00000502
H       15.10049131       3.64923419       2.33596070      -0.00000912       0.00000382      -0.00000469
H        7.87463050      24.02437179       6.69601005      -0.00000250      -0.00000380       0.00000644
H       14.30419885      10.89755595       4.10417316       0.00001454       0.00002802       0.00002106
H        4.22229298       3.54977831       6.37144586      -0.00001044      -0.00000234      -0.00001381
H       16.00290484       5.00132492       6.53069912      -0.00000692      -0.00000373       0.00001491
C        7.12387191      22.56319801       5.51748220       0.00000443      -0.00000482       0.00000083
C       13.32837801       9.60304907       2.88592192      -0.00001759      -0.00000354      -0.00000311
C        3.36633837       4.96845333       5.19295332      -0.00000681       0.00001930       0.00001230
C       17.03457823       3.71996136       3.01715018      -0.00002606      -0.00000576       0.00000286
N        6.20209467      22.11215436       4.69957560       0.00000699       0.00000441      -0.00000747
N       13.30288208       8.51860567       2.14311495      -0.00001280       0.00000974       0.00002676
N        4.26426657       4.44405669      10.65530857       0.00000142      -0.00001728      -0.00001203
N       17.07002723       2.61609266       3.72977299       0.00001029       0.00002230      -0.00001026
N        7.09004213      23.74120242       6.10212038       0.00000574       0.00000302      -0.00002378
N       14.36667569      10.01940641       3.57344709      -0.00002224      -0.00003497      -0.00002635
N        4.30232060       4.49644239       5.98236751       0.00001261      -0.00000004       0.00001285
N       15.98341025       4.16176106       2.36569585       0.00004213       0.00001087       0.00001796
Pb       1.41475999       0.26136415       2.94609890       0.00001212       0.00000757      -0.00000663
Pb      19.05918137       8.36642326       5.39009873       0.00000298      -0.00000687       0.00001004
Pb       9.08995022       6.14420857       2.67698216      -0.00000893      -0.00000297       0.00000352
Pb      11.27064695       2.48959466       5.13103633       0.00000085      -0.00000360       0.00000591
I        0.40079355       2.27366869       5.28158443      -0.00000085       0.00000267       0.00000576
I        0.21285144       6.35387467       2.92176097       0.00000415      -0.00000086       0.00000569
I       10.08353677       8.14943250       5.06602940       0.00000103      -0.00000228      -0.00000277
I       10.26312821       0.49362663       2.75582411       0.00001080       0.00000139       0.00000877
I       18.24285886      22.28924124       3.33059249      -0.00000588       0.00000829       0.00000283
I        2.24477542       9.81606840       5.45958661      -0.00000668      -0.00001000      -0.00000446
I       12.14326711       4.66903421       2.80090100       0.00000601      -0.00000260       0.00000366
I        8.21672525       3.96844634       5.01845474      -0.00000722       0.00000963       0.00000446
I        4.28019750       1.52558819       3.23155652      -0.00000299      -0.00001749      -0.00000183
I       16.18323412       7.12782425       5.08429635      -0.00000446       0.00000792      -0.00000883
I        6.22714483       7.41580734       2.43628455      -0.00000534      -0.00000196      -0.00000378
I       14.14263841       1.24106254       5.39512349       0.00000424       0.00000217      -0.00000708
H        7.94258847      21.86143896      10.39822340       0.00000946      -0.00001169       0.00000539
H       12.37772973      10.15439692       7.61060928       0.00000633       0.00002003       0.00000104
H        2.47321907       4.26788740       9.64707432       0.00001254       0.00001936       0.00002404
H       17.91171615       4.26683206       7.63339118       0.00002652       0.00000405       0.00001393
H        6.29027483      21.17815234       4.28334415      -0.00000680       0.00000475      -0.00001425
H       14.26618824      10.84522882       8.77729392      -0.00001126       0.00000250      -0.00001053
H        2.58866426       6.46120897       4.07369614       0.00000319       0.00000086       0.00001519
H       17.90194734       2.30704209       8.88001469      -0.00001429       0.00000149      -0.00000646
H        6.27778612      24.33909899      10.63651644      -0.00001995       0.00000405      -0.00000346
H       15.20350210       9.44105321       8.29011734      -0.00000310       0.00000478      -0.00000655
H        4.15514080       6.81652958       4.79557167      -0.00002103      -0.00001777      -0.00000315
H       16.19391385       1.99972091       8.58529644      -0.00000683       0.00001079      -0.00001322
H        5.36559901      22.64373307       9.09883730       0.00000414      -0.00001830       0.00000118
H       14.10298367       7.90236004       6.63619293      -0.00001792       0.00000537       0.00000461
H        4.11702728       6.76422157       9.46866977       0.00003411       0.00001233       0.00001311
H       15.06235473       3.59684432       7.00898506       0.00000913       0.00001656      -0.00000017
H        6.25228445      21.12576799       8.95634398      -0.00000185       0.00001257       0.00000183
H       12.40426885       8.22579815       6.31454450       0.00000626      -0.00000607      -0.00000899
H        2.55060396       6.40887313       8.74669611      -0.00001071       0.00001279      -0.00000387
H       16.04108158       5.05372198       1.85777928      -0.00000978      -0.00001108      -0.00000025
C        7.08585954      22.51083808      10.19047607      -0.00001244       0.00001001      -0.00000840
C       13.29034580       9.55071588       7.55906161       0.00000108      -0.00000739       0.00000369
C        3.32829984       4.91607852       9.86588281      -0.00001162      -0.00000721      -0.00000921
C       16.99649381       3.66760266       7.69002868      -0.00000054       0.00000313      -0.00000027
N        7.05201572      23.68885509      10.77508765      -0.00000740      -0.00000968       0.00000571
N       14.32865540       9.96707848       8.24656512       0.00000341      -0.00001353      -0.00001094
N        3.38324932       6.16570394       4.64828849       0.00003381       0.00001782      -0.00001380
N       17.03201111       2.56375159       8.40267489      -0.00000392      -0.00001856       0.00002825
N        6.16409609      22.05977434       9.37256464      -0.00000426       0.00000973      -0.00000361
N       13.26484450       8.46627990       6.81624368       0.00001243      -0.00001464      -0.00000481
N        3.34518155       6.11336496       9.32129579      -0.00001797      -0.00001923      -0.00000981
N       15.94527531       4.10937354       7.03863762      -0.00001891      -0.00000462      -0.00000031
Pb       1.37670159       0.20896684       7.61909739      -0.00001154       0.00000542       0.00000197
Pb      19.02110876       8.31403565      10.06310977       0.00000022      -0.00000099      -0.00000662
Pb       9.05187115       6.09181781       7.34996241      -0.00000152      -0.00000041       0.00000170
Pb      11.23257666       2.43723558       9.80403977      -0.00000233      -0.00000150       0.00000283
I        0.36275089       2.22130076       9.95455952      -0.00000662      -0.00000067       0.00000206
I        0.17478207       6.30150895       7.59475583       0.00001423      -0.00000416      -0.00000525
I       10.04542625       8.09705072       9.73899669      -0.00000004       0.00000964       0.00000912
I       10.22505662       0.44125277       7.42882752      -0.00001315       0.00000625       0.00000751
I       18.20479326      22.23686329       8.00360123       0.00000266       0.00000808       0.00000056
I        2.20669543       9.76369151      10.13260444       0.00000623      -0.00000899      -0.00000364
I       12.10520527       4.61664517       7.47390377       0.00000121       0.00000203      -0.00000751
I        8.17865627       3.91607715       9.69148268       0.00000836       0.00001154      -0.00000447
I        4.24214667       1.47318132       7.90455877      -0.00000340       0.00000344      -0.00000087
I       16.14517270       7.07542408       9.75728886       0.00000701      -0.00000373      -0.00000912
I        6.18909308       7.36343730       7.10926252      -0.00000808      -0.00000461       0.00000046
I       14.10461623       1.18877924      10.06813584      -0.00000440       0.00000789      -0.00000692
H        7.90445448      21.80903844      15.07120409       0.00000025      -0.00000532       0.00000213
H       12.33962496      10.10199628      12.28343795       0.00000401      -0.00000899      -0.00000286
H        2.43506995       4.21553718      14.32022993       0.00000049      -0.00001437      -0.00001473
H       17.87366683       4.21442761      12.30659361       0.00001496       0.00000972      -0.00000209
H        7.91273609      24.07678886       2.02299169       0.00000073      -0.00001013      -0.00000257
H       12.36616630       8.17337023      10.98740323       0.00000454       0.00000854       0.00000269
H        4.26039699       3.60212155       1.69833270      -0.00000289       0.00000376       0.00001430
H       17.86378310       2.25460387      13.55315854      -0.00000582      -0.00000747      -0.00002046
H        5.32745150      22.59136851      13.77186173       0.00001228      -0.00000862       0.00001076
H       14.06487152       7.84992022      11.30909495       0.00001377      -0.00000822      -0.00000027
H        5.13776895       5.12852534       1.59425855       0.00000012       0.00000303      -0.00000402
H       16.15576141       1.94731926      13.25831885      -0.00000801      -0.00002302       0.00001455
H        6.23966409      24.28669914      15.30957817       0.00000103      -0.00000186       0.00000282
H       15.16536270       9.38861098      12.96303675       0.00001962       0.00001024       0.00000735
H        5.02355936       4.97139776      15.61325206       0.00001074      -0.00000579      -0.00000502
H       15.02434483       3.54448227      11.68195995      -0.00000912       0.00000382      -0.00000469
H        7.79848402      23.91961987      16.04200930      -0.00000250      -0.00000380       0.00000644
H       14.22805237      10.79280403      13.45017241       0.00001454       0.00002802       0.00002106
H        4.14614650       3.44502639      15.71744511      -0.00001044      -0.00000234      -0.00001381
H       15.92675836       4.89657300      15.87669837      -0.00000692      -0.00000373       0.00001491
C        7.04772543      22.45844609      14.86348145       0.00000443      -0.00000482       0.00000083
C       13.25223153       9.49829715      12.23192117      -0.00001759      -0.00000354      -0.00000311
C        3.29019189       4.86370141      14.53895257      -0.00000681       0.00001929       0.00001230
C       16.95843175       3.61520944      12.36314943      -0.00002606      -0.00000576       0.00000286
N        6.12594819      22.00740244      14.04557485       0.00000699       0.00000441      -0.00000747
N       13.22673560       8.41385375      11.48911420      -0.00001280       0.00000974       0.00002676
N        4.34041305       4.54880861       1.30930932       0.00000140      -0.00001727      -0.00001203
N       16.99388075       2.51134074      13.07577224       0.00001029       0.00002230      -0.00001026
N        7.01389565      23.63645050      15.44811963       0.00000574       0.00000302      -0.00002378
N       14.29052921       9.91465449      12.91944634      -0.00002224      -0.00003497      -0.00002635
N        4.22617412       4.39169047      15.32836676       0.00001261      -0.00000004       0.00001285
N       15.90726377       4.05700914      11.71169510       0.00004213       0.00001087       0.00001796
Pb       1.33861351       0.15661223      12.29209815       0.00001212       0.00000757      -0.00000662
Pb      18.98303489       8.26167134      14.73609798       0.00000298      -0.00000687       0.00001004
Pb       9.01380374       6.03945665      12.02298141      -0.00000893      -0.00000297       0.00000352
Pb      11.19450047       2.38484274      14.47703558       0.00000085      -0.00000360       0.00000592
I        0.32464707       2.16891677      14.62758368      -0.00000085       0.00000267       0.00000576
I        0.13670496       6.24912275      12.26776022       0.00000415      -0.00000086       0.00000570
I       10.00739029       8.04468058      14.41202865       0.00000103      -0.00000228      -0.00000277
I       10.18698173       0.38887471      12.10182336       0.00001080       0.00000139       0.00000877
I       18.16671238      22.18448932      12.67659174      -0.00000588       0.00000829       0.00000283
I        2.16862894       9.71131648      14.80558586      -0.00000667      -0.00001000      -0.00000446
I       12.06712063       4.56428229      12.14690025       0.00000601      -0.00000260       0.00000367
I        8.14057877       3.86369442      14.36445399      -0.00000722       0.00000963       0.00000446
I        4.20405102       1.42083627      12.57755577      -0.00000299      -0.00001749      -0.00000183
I       16.10708764       7.02307233      14.43029560      -0.00000446       0.00000791      -0.00000883
I        6.15099835       7.31105542      11.78228380      -0.00000534      -0.00000196      -0.00000377
I       14.06649193       1.13631062      14.74112274       0.00000424       0.00000217      -0.00000708
H        8.01873496      21.96619088       1.05222414       0.00000947      -0.00001168       0.00000538
H       12.30158325      10.04964500      16.95660853       0.00000633       0.00002003       0.00000104
H        2.54936555       4.37263932       0.30107507       0.00001254       0.00001937       0.00002404
H       17.83556967       4.16208014      16.97939043       0.00002652       0.00000405       0.00001393
H        6.21412835      21.07340042      13.62934340      -0.00000680       0.00000475      -0.00001425
H       14.19004176      10.74047690      18.12329317      -0.00001126       0.00000250      -0.00001053
H        2.51251778       6.35645705      13.41969539       0.00000320       0.00000086       0.00001519
H       17.82580086       2.20229017      18.22601394      -0.00001428       0.00000149      -0.00000646
H        6.35393260      24.44385091       1.29051719      -0.00001995       0.00000402      -0.00000347
H       15.12735562       9.33630129      17.63611659      -0.00000310       0.00000478      -0.00000655
H        4.07899432       6.71177766      14.14157092      -0.00002103      -0.00001777      -0.00000315
H       16.11776737       1.89496899      17.93129569      -0.00000683       0.00001079      -0.00001322
H        5.44174549      22.74848499      -0.24716196       0.00000415      -0.00001829       0.00000119
H       14.02683719       7.79760812      15.98219218      -0.00001792       0.00000537       0.00000461
H        4.19317376       6.86897349       0.12267051       0.00003412       0.00001231       0.00001311
H       14.98620825       3.49209240      16.35498431       0.00000913       0.00001656      -0.00000017
H        6.32843093      21.23051991      -0.38965528      -0.00000185       0.00001257       0.00000182
H       12.32812237       8.12104623      15.66054375       0.00000626      -0.00000607      -0.00000899
H        2.62675044       6.51362505      -0.59930315      -0.00001071       0.00001278      -0.00000387
H       15.96493510       4.94897006      11.20377853      -0.00000978      -0.00001108      -0.00000025
C        7.16200603      22.61559000       0.84447681      -0.00001263       0.00001022      -0.00000831
C       13.21419932       9.44596396      16.90506086       0.00000108      -0.00000739       0.00000369
C        3.40444632       5.02083044       0.51988356      -0.00001157      -0.00000703      -0.00000932
C       16.92034733       3.56285074      17.03602793      -0.00000054       0.00000313      -0.00000026
N        7.12816220      23.79360701       1.42908840      -0.00000732      -0.00000989       0.00000560
N       14.25250892       9.86232656      17.59256437       0.00000341      -0.00001354      -0.00001094
N        3.30710284       6.06095202      13.99428774       0.00003381       0.00001782      -0.00001380
N       16.95586463       2.45899967      17.74867414      -0.00000393      -0.00001856       0.00002825
N        6.24024257      22.16452626       0.02656538      -0.00000415       0.00000973      -0.00000357
N       13.18869802       8.36152798      16.16224293       0.00001243      -0.00001464      -0.00000482
N        3.42132803       6.21811688      -0.02470347      -0.00001799      -0.00001943      -0.00000971
N       15.86912883       4.00462162      16.38463687      -0.00001891      -0.00000462      -0.00000031
Pb       1.30055511       0.10421492      16.96509664      -0.00001154       0.00000542       0.00000198
Pb      19.09725524       8.41878757       0.71711052       0.00000022      -0.00000099      -0.00000664
Pb       8.97572467       5.98706589      16.69596166      -0.00000152      -0.00000042       0.00000171
Pb      11.30872314       2.54198750       0.45804052      -0.00000233      -0.00000149       0.00000282
I        0.43889737       2.32605268       0.60856027      -0.00000662      -0.00000067       0.00000206
I        0.09863559       6.19675703      16.94075508       0.00001423      -0.00000417      -0.00000525
I       10.12157273       8.20180264       0.39299744      -0.00000004       0.00000963       0.00000912
I       10.14891014       0.33650085      16.77482677      -0.00001315       0.00000626       0.00000751
I       18.12864678      22.13211137      17.34960048       0.00000266       0.00000809       0.00000056
I        2.28284191       9.86844343       0.78660519       0.00000623      -0.00000898      -0.00000365
I       12.02905879       4.51189325      16.81990302       0.00000121       0.00000203      -0.00000750
I        8.25480275       4.02082907       0.34548343       0.00000837       0.00001154      -0.00000448
I        4.16600019       1.36842940      17.25055802      -0.00000340       0.00000344      -0.00000087
I       16.22131918       7.18017600       0.41128961       0.00000701      -0.00000373      -0.00000912
I        6.11294660       7.25868538      16.45526177      -0.00000808      -0.00000461       0.00000046
I       14.18076271       1.29353116       0.72213659      -0.00000440       0.00000789      -0.00000692
H        7.97460755      10.17687880       5.49261051       0.00000025      -0.00000531       0.00000213
H       12.42176485      21.94365977       3.17003303       0.00000401      -0.00000899      -0.00000286
H        2.51720984      16.05720067       5.20682501       0.00000049      -0.00001437      -0.00001473
H       17.95580672      16.05609110       3.19318869       0.00001496       0.00000972      -0.00000209
H        7.83059620      12.23512538      11.13639661       0.00000073      -0.00001013      -0.00000256
H       12.44830619      20.01503372       1.87399831       0.00000454       0.00000854       0.00000269
H        4.19024392      15.23428120      11.27692628      -0.00000289       0.00000376       0.00001429
H       17.94592299      14.09626736       4.43975362      -0.00000582      -0.00000748      -0.00002046
H        5.39760457      10.95920887       4.19326815       0.00001227      -0.00000862       0.00001076
H       14.14701141      19.69158371       2.19569003       0.00001376      -0.00000822      -0.00000027
H        5.06761588      16.76068499      11.17285213       0.00000011       0.00000303      -0.00000402
H       16.23790130      13.78898275       4.14491393      -0.00000801      -0.00002302       0.00001455
H        6.30981716      12.65453950       5.73098459       0.00000102      -0.00000186       0.00000282
H       15.24750259      21.23027447       3.84963183       0.00001962       0.00001024       0.00000735
H        5.10569925      16.81306125       6.49984714       0.00001074      -0.00000579      -0.00000502
H       15.10648472      15.38614576       2.56855503      -0.00000912       0.00000382      -0.00000469
H        7.86863709      12.28746023       6.46341572      -0.00000250      -0.00000379       0.00000644
H       14.31019226      22.63446752       4.33676749       0.00001454       0.00002803       0.00002106
H        4.22828639      15.28668988       6.60404019      -0.00001044      -0.00000234      -0.00001381
H       16.00889825      16.73823649       6.76329345      -0.00000692      -0.00000373       0.00001491
C        7.11787850      10.82628645       5.28488787       0.00000441      -0.00000486       0.00000083
C       13.33437142      21.33996064       3.11851625      -0.00001758      -0.00000354      -0.00000310
C        3.37233178      16.70536490       5.42554765      -0.00000681       0.00001929       0.00001230
C       17.04057164      15.45687293       3.24974451      -0.00002606      -0.00000577       0.00000286
N        6.19610126      10.37524280       4.46698127       0.00000700       0.00000439      -0.00000749
N       13.30887549      20.25551724       2.37570928      -0.00001280       0.00000974       0.00002675
N        4.27025998      16.18096826      10.88790290       0.00000142      -0.00001728      -0.00001203
N       17.07602064      14.35300423       3.96236732       0.00001028       0.00002230      -0.00001026
N        7.08404872      12.00429086       5.86952605       0.00000576       0.00000305      -0.00002377
N       14.37266910      21.75631798       3.80604142      -0.00002225      -0.00003498      -0.00002636
N        4.30831401      16.23335396       6.21496184       0.00001261      -0.00000004       0.00001285
N       15.98940366      15.89867263       2.59829018       0.00004213       0.00001087       0.00001795
Pb       1.42075340      11.99827572       3.17869323       0.00001212       0.00000756      -0.00000663
Pb      19.06517478      20.10333483       5.62269306       0.00000298      -0.00000688       0.00001002
Pb       9.09594363      17.88112014       2.90957649      -0.00000893      -0.00000297       0.00000351
Pb      11.27664036      14.22650623       5.36363066       0.00000085      -0.00000361       0.00000591
I        0.40678696      14.01058026       5.51417876      -0.00000085       0.00000267       0.00000575
I        0.21884485      18.09078624       3.15435530       0.00000416      -0.00000087       0.00000569
I       10.08953018      19.88634407       5.29862373       0.00000103      -0.00000228      -0.00000278
I       10.26912162      12.23053820       2.98841844       0.00001080       0.00000140       0.00000876
I       18.23686545      10.55232968       3.09799816      -0.00000588       0.00000827       0.00000283
I        2.25076883      21.55297997       5.69218094      -0.00000667      -0.00001002      -0.00000446
I       12.14926052      16.40594578       3.03349533       0.00000601      -0.00000260       0.00000366
I        8.22271866      15.70535791       5.25104907      -0.00000722       0.00000964       0.00000445
I        4.28619091      13.26249976       3.46415085      -0.00000299      -0.00001749      -0.00000184
I       16.18922753      18.86473582       5.31689068      -0.00000446       0.00000791      -0.00000883
I        6.23313824      19.15271891       2.66887888      -0.00000535      -0.00000197      -0.00000378
I       14.14863182      12.97797411       5.62771782       0.00000424       0.00000216      -0.00000709
H        7.93659506      10.12452740      10.16562907       0.00000947      -0.00001169       0.00000539
H       12.38372314      21.89130849       7.84320361       0.00000633       0.00002003       0.00000104
H        2.47921248      16.00479897       9.87966865       0.00001254       0.00001936       0.00002404
H       17.91770956      16.00374363       7.86598551       0.00002652       0.00000405       0.00001393
H        6.28428142       9.44124078       4.05074982      -0.00000680       0.00000476      -0.00001425
H       14.27218165      22.58214039       9.00988825      -0.00001126       0.00000250      -0.00001053
H        2.59465767      18.19812054       4.30629047       0.00000319       0.00000086       0.00001519
H       17.90794075      14.04395366       9.11260902      -0.00001428       0.00000149      -0.00000646
H        6.27179271      12.60218743      10.40392211      -0.00001995       0.00000404      -0.00000346
H       15.20949551      21.17796478       8.52271167      -0.00000310       0.00000478      -0.00000655
H        4.16113421      18.55344115       5.02816600      -0.00002103      -0.00001778      -0.00000315
H       16.19990726      13.73663248       8.81789077      -0.00000683       0.00001079      -0.00001322
H        5.35960560      10.90682151       8.86624297       0.00000414      -0.00001830       0.00000118
H       14.10897708      19.63927161       6.86878726      -0.00001792       0.00000537       0.00000461
H        4.12302069      18.50113314       9.70126410       0.00003411       0.00001233       0.00001311
H       15.06834814      15.33375589       7.24157939       0.00000913       0.00001656      -0.00000017
H        6.24629104       9.38885643       8.72374965      -0.00000185       0.00001257       0.00000183
H       12.41026226      19.96270972       6.54713883       0.00000626      -0.00000607      -0.00000899
H        2.55659737      18.14578470       8.97929044      -0.00001071       0.00001279      -0.00000387
H       16.04707499      16.79063355       2.09037361      -0.00000978      -0.00001108      -0.00000025
C        7.07986613      10.77392652       9.95788174      -0.00001246       0.00000998      -0.00000839
C       13.29633921      21.28762745       7.79165594       0.00000108      -0.00000739       0.00000369
C        3.33429325      16.65299009      10.09847714      -0.00001162      -0.00000721      -0.00000921
C       17.00248722      15.40451423       7.92262301      -0.00000054       0.00000313      -0.00000026
N        7.04602231      11.95194353      10.54249332      -0.00000738      -0.00000965       0.00000572
N       14.33464881      21.70399005       8.47915945       0.00000341      -0.00001354      -0.00001095
N        3.38924273      17.90261551       4.88088282       0.00003381       0.00001782      -0.00001380
N       17.03800452      14.30066316       8.63526922      -0.00000392      -0.00001856       0.00002825
N        6.15810268      10.32286278       9.13997031      -0.00000426       0.00000971      -0.00000362
N       13.27083791      20.20319147       7.04883801       0.00001243      -0.00001465      -0.00000482
N        3.35117496      17.85027653       9.55389012      -0.00001797      -0.00001923      -0.00000981
N       15.95126872      15.84628511       7.27123195      -0.00001892      -0.00000462      -0.00000031
Pb       1.38269500      11.94587841       7.85169172      -0.00001154       0.00000541       0.00000197
Pb      19.02710217      20.05094722      10.29570410       0.00000022      -0.00000101      -0.00000663
Pb       9.05786456      17.82872938       7.58255674      -0.00000151      -0.00000042       0.00000170
Pb      11.23857007      14.17414715      10.03663410      -0.00000233      -0.00000150       0.00000283
I        0.36874430      13.95821233      10.18715385      -0.00000662      -0.00000067       0.00000206
I        0.18077548      18.03842052       7.82735016       0.00001423      -0.00000417      -0.00000526
I       10.05141966      19.83396229       9.97159102      -0.00000004       0.00000964       0.00000912
I       10.23105003      12.17816434       7.66142185      -0.00001315       0.00000625       0.00000751