768
Lattice="37.270736588784004 -0.2608827397892206 -0.09657957341062719 -0.04608722211304349 22.618217900570055 0.08262626718457151 -0.042913875137613626 -0.07760667127455552 18.780786146839297" Properties=species:S:1:pos:R:3:forces:R:3 energy=-3355.0693828250487 stress="0.0010158210866181264 -0.0003018361068890662 -0.00012254674429080029 -0.0003018361068890662 0.0019872457660912324 -1.8699493511139488e-05 -0.00012254674429080029 -1.8699493511139488e-05 0.00011552862721552051" free_energy=-3355.0693828250487 pbc="T T T"
I       16.80261297       7.65489337       4.83557358      -0.00000671      -0.00000376      -0.00000196
I       17.44394349      11.57751518       2.49728415      -0.00001356      -0.00000123       0.00000986
I        8.10801600      13.38153157       4.87694021       0.00001854       0.00000665      -0.00000090
I        7.50319386       5.98125900       2.50416815      -0.00000205       0.00001491      -0.00000526
I       15.14235445       4.14232912       2.46738673       0.00000145      -0.00000123      -0.00000017
I        0.46884043      15.22053828       4.91372315       0.00000361      -0.00001899      -0.00000792
I        9.80724936       9.86365008       2.52402264       0.00000108      -0.00000286      -0.00000063
I        5.80393664       9.49917375       4.85703466       0.00001164      -0.00000024       0.00001591
I        2.10510111       7.62885995       2.52587920      -0.00001304      -0.00000364       0.00000720
I       13.50611231      11.73394659       4.85522436       0.00001366       0.00000533       0.00001013
I        4.21274160      13.23706207       2.53420473      -0.00001920      -0.00000511      -0.00000030
I       11.39851162       6.12581151       4.84691981       0.00000128       0.00000020       0.00001037
H        4.57878401       6.06007953       3.96338117       0.00001417      -0.00000487      -0.00000117
H       12.26657650      14.26944087       2.54329456       0.00000321       0.00001025      -0.00000100
H        1.72084464      11.73904479       5.78048111       0.00000251      -0.00000319       0.00001831
H       13.89035113       7.62388213       1.60048901      -0.00000389       0.00000767       0.00000955
H        3.34466119       5.09332173       4.83759889       0.00000228      -0.00000045      -0.00000448
H       11.03254873      13.30264628       3.41760293      -0.00000643       0.00000029      -0.00001117
H        2.95081316      10.77556501       4.89730155       0.00000910      -0.00001848       0.00000901
H       13.87462202       7.62347582       3.38739490      -0.00001027      -0.00000996       0.00001416
H        4.56026837       6.04766724       5.75000165       0.00002549       0.00000369       0.00004536
H       11.05084571      13.31516592       1.63097773      -0.00001643       0.00001593       0.00001166
H        1.73642622      11.73938610       3.99357525       0.00000418       0.00000386       0.00000785
H       12.66038087       8.58742231       2.48360358       0.00000788      -0.00002831       0.00000741
H        5.11947302       3.65673437       5.67326445       0.00002174       0.00000096      -0.00002126
H        9.32638013      14.80255252       2.51779329      -0.00001213       0.00001311       0.00000621
H        0.00947578      10.24856849       4.87261638      -0.00000981       0.00001373      -0.00001234
H       14.45003016      10.01465557       1.67336933      -0.00001086      -0.00002902       0.00003908
H        6.28486001       4.56023926       4.86351621      -0.00003319      -0.00001343      -0.00000808
H       10.49165484      15.70608678       1.70791158       0.00000469      -0.00002947       0.00001974
H        1.16133261       9.34821564       5.70772285       0.00002078      -0.00000740       0.00001788
H       15.60175031       9.11420421       2.50857251       0.00001730       0.00000561      -0.00000122
H        5.13467180       3.66700253       4.01944481      -0.00001353       0.00002059      -0.00000662
H       10.47668650      15.69574772       3.36173158       0.00000211       0.00002126       0.00002519
H        1.17388471       9.35011329       4.05420867      -0.00000112       0.00000826      -0.00000292
H       14.43732202      10.01271938       3.32688287      -0.00000001       0.00002368       0.00003674
C        4.37874037       5.45265997       4.85050234      -0.00001738       0.00000586      -0.00003840
C       11.23249191      13.91011590       2.53049276      -0.00003185      -0.00000720       0.00000951
C        1.91772590      11.13773063       4.88859930      -0.00000244      -0.00000113      -0.00002332
C       13.69344082       8.22517720       2.49237863      -0.00002262      -0.00000001      -0.00003996
Pb      36.73926482       5.66268063       2.43367548       0.00002353      -0.00001184       0.00001128
Pb      16.14265656      13.43930133       4.85086951      -0.00000023       0.00000059      -0.00001132
Pb       6.83909283      11.51127720       2.51989516      -0.00000728      -0.00000877       0.00002209
Pb       8.77211614       7.85155538       4.86117925       0.00001134      -0.00001120      -0.00002618
N        5.29255666       4.28056876       4.85154981      -0.00001185      -0.00000069       0.00005435
N       10.31868566      15.08221669       2.52962392       0.00002564      -0.00000351      -0.00006944
N        1.00150341       9.96789976       4.88060757       0.00000583       0.00000440      -0.00001687
N       14.60974367       9.39494281       2.50048565       0.00000304       0.00002164      -0.00004910
I       16.79188845       7.63549406       9.53072595       0.00001237       0.00000559       0.00000267
I       17.43327864      11.55813489       7.19247361      -0.00000062      -0.00000020       0.00002808
I        8.09733621      13.36210124       9.57208142       0.00001065       0.00001745      -0.00000234
I        7.49241851       5.96190553       7.19937878       0.00001146      -0.00001884      -0.00000921
I       15.13167943       4.12294687       7.16259192      -0.00000886       0.00001256      -0.00000738
I        0.45811592      15.20112050       9.60895485      -0.00000780       0.00000466      -0.00000404
I        9.79646526       9.84427090       7.21920172      -0.00000843      -0.00001072       0.00000107
I        5.79321914       9.47975746       9.55228696       0.00001344       0.00000796       0.00000916
I        2.09444205       7.60951807       7.22107519      -0.00001790      -0.00001387      -0.00000460
I       13.49537874      11.71457082       9.55043531       0.00000785      -0.00001932       0.00000895
I        4.20187381      13.21759984       7.22941647       0.00002332       0.00000222       0.00000595
I       11.38778774       6.10639549       9.54212527       0.00001884       0.00001811      -0.00000999
H        4.56779189       6.04062098       8.65866051       0.00001581       0.00003177      -0.00004229
H       12.25583780      14.25008701       7.23818865       0.00002095       0.00000983      -0.00000327
H        1.71000841      11.71947007      10.47613847       0.00000883       0.00001803      -0.00001069
H       13.86386885       7.60414487       8.08266927      -0.00000293      -0.00000196      -0.00000217
H        3.33394283       5.07379030       9.53317901       0.00001931       0.00001691      -0.00000484
H       11.02197982      13.28331025       8.11274660      -0.00002770      -0.00002481       0.00001519
H        2.94011403      10.75614955       9.59297716       0.00001076      -0.00001687      -0.00001568
H       12.64962847       8.56810579       7.17889293       0.00000757      -0.00002639       0.00000993
H        4.54971937       6.02821169      10.44528647       0.00000950      -0.00000096       0.00000804
H       11.03995291      13.29576193       6.32611950       0.00001022       0.00002102       0.00000868
H        1.72587566      11.72014241       8.68923549      -0.00000744      -0.00001934      -0.00002615
H       13.87954439       7.60451482       6.29576393       0.00002145       0.00000721      -0.00002445
H        6.27417855       4.54088932       9.55833931       0.00001459       0.00000084       0.00002044
H       10.46602112      15.67636897       8.05691696       0.00001880       0.00000888      -0.00000405
H        1.16332319       9.33081306       8.74939635       0.00000861       0.00000109      -0.00002890
H       15.59101360       9.09482215       7.20374109      -0.00003286      -0.00000566       0.00001418
H        5.12382097       3.64756148       8.71461596      -0.00003624      -0.00000253      -0.00003658
H        9.31563371      14.78315877       7.21310873      -0.00002273       0.00000669      -0.00000103
H       -0.00122015      10.22916307       9.56771801      -0.00002993       0.00002315      -0.00000455
H       14.42663631       9.99335644       8.02211498       0.00001226       0.00000461      -0.00002330
H        5.10905758       3.63733732      10.36843831      -0.00001613      -0.00000465      -0.00000380
H       10.48081237      15.68670621       6.40309252      -0.00000483       0.00000819       0.00000700
H        1.15049937       9.32870141      10.40290940      -0.00001741       0.00000773      -0.00003599
H       14.43926658       9.99529352       6.36859871      -0.00002131       0.00000833      -0.00001781
C        4.36800360       5.43319296       9.54583145      -0.00002819      -0.00001019       0.00004169
C       11.22175576      13.89074862       7.22557866      -0.00000555      -0.00001519       0.00001183
C        1.90702947      11.11832012       9.58417616      -0.00002453       0.00000481       0.00000412
C       13.68267960       8.20583420       7.18764602      -0.00002308       0.00001044      -0.00000112
Pb      36.72862029       5.64328974       7.12888065      -0.00000474      -0.00000714       0.00000450
Pb      16.13193325      13.41989410       9.54606071       0.00000284       0.00001890      -0.00000716
Pb       6.82828188      11.49184508       7.21509040       0.00000093       0.00001745       0.00000895
Pb       8.76140050       7.83217089       9.55639366      -0.00000032      -0.00003461       0.00000625
N        5.28189051       4.26115753       9.54666483      -0.00001020      -0.00002622       0.00001995
N       10.30793640      15.06283764       7.22482205       0.00001651       0.00001393      -0.00005375
N        0.99080525       9.94849298       9.57584533       0.00002832      -0.00000063       0.00006720
N       14.59901035       9.37557917       7.19570714       0.00004428      -0.00003072       0.00002440
I       16.78115603       7.61609003      14.22596665      -0.00000670      -0.00000376      -0.00000195
I       17.42248655      11.53871184      11.88767722      -0.00001355      -0.00000123       0.00000986
I        8.08655906      13.34272823      14.26733328       0.00001854       0.00000665      -0.00000090
I        7.48173692       5.94245566      11.89456122      -0.00000205       0.00001491      -0.00000526
I       15.12089751       4.10352578      11.85777980       0.00000145      -0.00000122      -0.00000016
I        0.44738349      15.18173494      14.30411622       0.00000362      -0.00001899      -0.00000792
I        9.78579242       9.82484674      11.91441571       0.00000108      -0.00000286      -0.00000062
I        5.78247970       9.46037041      14.24742773       0.00001164      -0.00000024       0.00001591
I        2.08364417       7.59005661      11.91627227      -0.00001303      -0.00000364       0.00000720
I       13.48465537      11.69514325      14.24561743       0.00001367       0.00000533       0.00001013
I        4.19128466      13.19825873      11.92459780      -0.00001920      -0.00000511      -0.00000030
I       11.37705468       6.08700817      14.23731288       0.00000128       0.00000020       0.00001037
H        4.55732707       6.02127619      13.35377424       0.00001417      -0.00000487      -0.00000117
H       12.24511956      14.23063753      11.93368763       0.00000321       0.00001025      -0.00000100
H        1.69938770      11.70024145      15.17087418       0.00000251      -0.00000319       0.00001831
H       13.86889419       7.58507879      10.99088208      -0.00000389       0.00000767       0.00000955
H        3.32320425       5.05451839      14.22799196       0.00000228      -0.00000045      -0.00000448
H       11.01109179      13.26384294      12.80799600      -0.00000643       0.00000029      -0.00001117
H        2.92935622      10.73676167      14.28769462       0.00000910      -0.00001848       0.00000901
H       13.85316508       7.58467248      12.77778797      -0.00001027      -0.00000996       0.00001416
H        4.53881143       6.00886390      15.14039472       0.00002549       0.00000369       0.00004536
H       11.02938877      13.27636258      11.02137080      -0.00001643       0.00001593       0.00001166
H        1.71496928      11.70058276      13.38396832       0.00000418       0.00000386       0.00000785
H       12.63892393       8.54861897      11.87399665       0.00000788      -0.00002831       0.00000741
H        5.09801608       3.61793103      15.06365752       0.00002174       0.00000096      -0.00002126
H        9.30492319      14.76374918      11.90818636      -0.00001213       0.00001311       0.00000621
H       -0.01198116      10.20976515      14.26300945      -0.00000981       0.00001373      -0.00001234
H       14.42857322       9.97585223      11.06376240      -0.00001086      -0.00002903       0.00003908
H        6.26340307       4.52143592      14.25390928      -0.00003319      -0.00001343      -0.00000808
H       10.47019790      15.66728344      11.09830465       0.00000469      -0.00002947       0.00001974
H        1.13987567       9.30941230      15.09811592       0.00002078      -0.00000740       0.00001788
H       15.58029337       9.07540087      11.89896558       0.00001730       0.00000561      -0.00000122
H        5.11321486       3.62819919      13.40983788      -0.00001353       0.00002059      -0.00000661
H       10.45522956      15.65694438      12.75212465       0.00000211       0.00002126       0.00002519
H        1.15242777       9.31130995      13.44460174      -0.00000112       0.00000826      -0.00000292
H       14.41586508       9.97391604      12.71727594      -0.00000001       0.00002367       0.00003674
C        4.35728343       5.41385663      14.24089541      -0.00001738       0.00000586      -0.00003840
C       11.21103497      13.87131256      11.92088583      -0.00003185      -0.00000720       0.00000951
C        1.89626896      11.09892729      14.27899237      -0.00000244      -0.00000114      -0.00002332
C       13.67198388       8.18637386      11.88277170      -0.00002262      -0.00000001      -0.00003996
Pb      36.71780788       5.62387729      11.82406855       0.00002353      -0.00001184       0.00001130
Pb      16.12119962      13.40049799      14.24126258      -0.00000023       0.00000059      -0.00001130
Pb       6.81763589      11.47247386      11.91028823      -0.00000728      -0.00000877       0.00002209
Pb       8.75065920       7.81275204      14.25157232       0.00001134      -0.00001120      -0.00002618
N        5.27109972       4.24176542      14.24194288      -0.00001185      -0.00000069       0.00005435
N       10.29722872      15.04341335      11.92001699       0.00002564      -0.00000350      -0.00006944
N        0.98004647       9.92909642      14.27100064       0.00000584       0.00000440      -0.00001687
N       14.58828673       9.35613947      11.89087872       0.00000304       0.00002164      -0.00004910
I       16.81334539       7.67429740       0.14033288       0.00001237       0.00000559       0.00000266
I       17.41182170      11.51933155      16.58286668      -0.00000062      -0.00000019       0.00002809
I        8.11879315      13.40090458       0.18168835       0.00001064       0.00001743      -0.00000236
I        7.47096157       5.92310219      16.58977185       0.00001147      -0.00001883      -0.00000920
I       15.11022249       4.08414353      16.55298499      -0.00000885       0.00001256      -0.00000738
I        0.47957286      15.23992384       0.21856178      -0.00000780       0.00000466      -0.00000404
I        9.77500832       9.80546756      16.60959479      -0.00000843      -0.00001071       0.00000107
I        5.81467608       9.51856080       0.16189389       0.00001344       0.00000796       0.00000916
I        2.07298511       7.57071473      16.61146826      -0.00001790      -0.00001386      -0.00000459
I       13.51683568      11.75337416       0.16004224       0.00000785      -0.00001933       0.00000895
I        4.18041687      13.17879650      16.61980954       0.00002332       0.00000223       0.00000597
I       11.40924468       6.14519883       0.15173220       0.00001883       0.00001810      -0.00001000
H        4.58924883       6.07942431      -0.73173257       0.00001583       0.00003181      -0.00004226
H       12.23438086      14.21128367      16.62858172       0.00002095       0.00000983      -0.00000327
H        1.73146535      11.75827341       1.08574540       0.00000882       0.00001805      -0.00001071
H       13.84241191       7.56534153      17.47306234      -0.00000293      -0.00000196      -0.00000217
H        3.35539977       5.11259364       0.14278594       0.00001930       0.00001690      -0.00000482
H       11.00052288      13.24450691      17.50313967      -0.00002770      -0.00002481       0.00001519
H        2.96157097      10.79495289       0.20258409       0.00001076      -0.00001687      -0.00001568
H       12.62817153       8.52930245      16.56928600       0.00000757      -0.00002639       0.00000993
H        4.57117631       6.06701503       1.05489340       0.00000951      -0.00000094       0.00000802
H       11.01849597      13.25695859      15.71651257       0.00001022       0.00002102       0.00000868
H        1.74733260      11.75894574      -0.70115759      -0.00000740      -0.00001932      -0.00002608
H       13.85808745       7.56571148      15.68615700       0.00002145       0.00000721      -0.00002445
H        6.29563549       4.57969266       0.16794624       0.00001459       0.00000083       0.00002042
H       10.44456418      15.63756563      17.44731003       0.00001880       0.00000888      -0.00000405
H        1.18478013       9.36961639      -0.64099673       0.00000859       0.00000129      -0.00002866
H       15.56955666       9.05601881      16.59413416      -0.00003286      -0.00000566       0.00001418
H        5.14527791       3.68636481      -0.67577712      -0.00003617      -0.00000232      -0.00003629
H        9.29417677      14.74435543      16.60350180      -0.00002273       0.00000670      -0.00000103
H        0.02023679      10.26796641       0.17732494      -0.00002993       0.00002316      -0.00000454
H       14.40517937       9.95455310      17.41250805       0.00001226       0.00000461      -0.00002331
H        5.13051452       3.67614066       0.97804524      -0.00001612      -0.00000464      -0.00000380
H       10.45935543      15.64790287      15.79348559      -0.00000483       0.00000820       0.00000700
H        1.17195631       9.36750475       1.01251633      -0.00001742       0.00000773      -0.00003600
H       14.41780964       9.95649018      15.75899178      -0.00002131       0.00000833      -0.00001781
C        4.38946054       5.47199630       0.15543838      -0.00002820      -0.00001024       0.00004165
C       11.20029882      13.85194528      16.61597173      -0.00000555      -0.00001519       0.00001183
C        1.92848641      11.15712346       0.19378309      -0.00002456       0.00000478       0.00000402
C       13.66122266       8.16703086      16.57803909      -0.00002308       0.00001044      -0.00000112
Pb      36.70716335       5.60448640      16.51927372      -0.00000473      -0.00000714       0.00000451
Pb      16.15339019      13.45869744       0.15566764       0.00000285       0.00001889      -0.00000717
Pb       6.80682494      11.45304174      16.60548347       0.00000094       0.00001746       0.00000896
Pb       8.78285744       7.87097423       0.16600059      -0.00000032      -0.00003462       0.00000624
N        5.30334745       4.29996087       0.15627176      -0.00001028      -0.00002645       0.00001969
N       10.28647946      15.02403430      16.61521512       0.00001651       0.00001394      -0.00005373
N        1.01226219       9.98729632       0.18545226       0.00002835      -0.00000085       0.00006700
N       14.57755341       9.33677583      16.58610021       0.00004428      -0.00003071       0.00002441
I       16.77956936      18.96400232       4.87688671      -0.00000671      -0.00000376      -0.00000195
I       17.46698710       0.26840623       2.45597102      -0.00001356      -0.00000123       0.00000984
I        8.13105961       2.07242262       4.83562708       0.00001854       0.00000665      -0.00000090
I        7.48015025      17.29036795       2.54548128      -0.00000206       0.00001491      -0.00000525
I       15.11931084      15.45143807       2.50869986       0.00000144      -0.00000123      -0.00000016
I        0.49188404       3.91142933       4.87241002       0.00000362      -0.00001899      -0.00000792
I        9.78420575      21.17275903       2.56533577       0.00000108      -0.00000286      -0.00000062
I        5.78089303      20.80828270       4.89834779       0.00001164      -0.00000024       0.00001591
I        2.08205750      18.93796890       2.56719233      -0.00001304      -0.00000364       0.00000720
I       13.52915592       0.42483764       4.81391123       0.00001367       0.00000533       0.00001012
I        4.23578521       1.92795312       2.49289160      -0.00001920      -0.00000511      -0.00000030
I       11.37546801      17.43492046       4.88823294       0.00000128       0.00000020       0.00001037
H        4.55574040      17.36918848       4.00469430       0.00001417      -0.00000487      -0.00000117
H       12.28962011       2.96033192       2.50198143       0.00000321       0.00001025      -0.00000100
H        1.69780103      23.04815374       5.82179425       0.00000256      -0.00000331       0.00001814
H       13.86730752      18.93299108       1.64180214      -0.00000389       0.00000767       0.00000955
H        3.32161758      16.40243068       4.87891202       0.00000228      -0.00000045      -0.00000448
H       11.05559234       1.99353733       3.37628980      -0.00000643       0.00000029      -0.00001117
H        2.92776955      22.08467396       4.93861468       0.00000909      -0.00001847       0.00000900
H       13.85157841      18.93258477       3.42870803      -0.00001027      -0.00000996       0.00001416
H        4.53722476      17.35677619       5.79131478       0.00002549       0.00000369       0.00004536
H       11.07388932       2.00605697       1.58966460      -0.00001643       0.00001593       0.00001166
H        1.71338261      23.04849505       4.03488839       0.00000416       0.00000394       0.00000771
H       12.63733726      19.89653126       2.52491671       0.00000788      -0.00002832       0.00000741
H        5.09642941      14.96584332       5.71457758       0.00002174       0.00000096      -0.00002126
H        9.34942374       3.49344357       2.47648016      -0.00001212       0.00001311       0.00000621
H       -0.01356783      21.55767744       4.91392951      -0.00000981       0.00001373      -0.00001234
H       14.42698655      21.32376452       1.71468246      -0.00001086      -0.00002903       0.00003908
H        6.26181640      15.86934821       4.90482934      -0.00003319      -0.00001343      -0.00000808
H       10.51469845       4.39697783       1.66659845       0.00000469      -0.00002947       0.00001974
H        1.13828900      20.65732459       5.74903598       0.00002078      -0.00000740       0.00001787
H       15.57870670      20.42331316       2.54988564       0.00001730       0.00000561      -0.00000122
H        5.11162819      14.97611148       4.06075794      -0.00001353       0.00002059      -0.00000662
H       10.49973011       4.38663877       3.32041845       0.00000211       0.00002126       0.00002519
H        1.15084110      20.65922224       4.09552180      -0.00000112       0.00000826      -0.00000292
H       14.41427841      21.32182833       3.36819600      -0.00000001       0.00002367       0.00003674
C        4.35569676      16.76176892       4.89181547      -0.00001738       0.00000586      -0.00003840
C       11.25553552       2.60100695       2.48917963      -0.00003185      -0.00000721       0.00000951
C        1.89468229      22.44683958       4.92991243      -0.00000247      -0.00000111      -0.00002301
C       13.67039721      19.53428615       2.53369176      -0.00002262      -0.00000001      -0.00003996
Pb      36.71622121      16.97178958       2.47498861       0.00002353      -0.00001184       0.00001130
Pb      16.16570017       2.13019238       4.80955638      -0.00000022       0.00000059      -0.00001132
Pb       6.86213644       0.20216825       2.47858203      -0.00000728      -0.00000877       0.00002207
Pb       8.74907253      19.16066433       4.90249238       0.00001134      -0.00001120      -0.00002619
N        5.26951305      15.58967771       4.89286294      -0.00001185      -0.00000069       0.00005435
N       10.34172927       3.77310774       2.48831079       0.00002564      -0.00000351      -0.00006945
N        0.97845980      21.27700871       4.92192070       0.00000583       0.00000440      -0.00001687
N       14.58670006      20.70405176       2.54179878       0.00000304       0.00002165      -0.00004909
I       16.76884484      18.94460301       9.57203908       0.00001237       0.00000560       0.00000268
I       17.45632225       0.24902594       7.15116048      -0.00000062      -0.00000020       0.00002808
I        8.12037982       2.05299229       9.53076829       0.00001065       0.00001744      -0.00000235
I        7.46937490      17.27101448       7.24069191       0.00001146      -0.00001884      -0.00000921
I       15.10863582      15.43205582       7.20390505      -0.00000886       0.00001256      -0.00000738
I        0.48115953       3.89201155       9.56764172      -0.00000779       0.00000466      -0.00000405
I        9.77342165      21.15337985       7.26051485      -0.00000844      -0.00001072       0.00000108
I        5.77017553      20.78886641       9.59360009       0.00001344       0.00000796       0.00000917
I        2.07139844      18.91862702       7.26238832      -0.00001790      -0.00001387      -0.00000460
I       13.51842235       0.40546187       9.50912218       0.00000785      -0.00001933       0.00000895
I        4.22491742       1.90849089       7.18810334       0.00002332       0.00000222       0.00000595
I       11.36474413      17.41550444       9.58343840       0.00001884       0.00001811      -0.00000998
H        4.54474828      17.34972993       8.69997364       0.00001581       0.00003177      -0.00004229
H       12.27888141       2.94097806       7.19687552       0.00002095       0.00000983      -0.00000327
H        1.68696480      23.02857902      10.51745161       0.00000888       0.00001792      -0.00001086
H       13.84082524      18.91325382       8.12398240      -0.00000293      -0.00000196      -0.00000217
H        3.31089922      16.38289925       9.57449214       0.00001931       0.00001691      -0.00000484
H       11.04502343       1.97420130       8.07143347      -0.00002770      -0.00002481       0.00001519
H        2.91707042      22.06525850       9.63429029       0.00001076      -0.00001686      -0.00001568
H       12.62658486      19.87721474       7.22020606       0.00000757      -0.00002639       0.00000993
H        4.52667576      17.33732064      10.48659960       0.00000950      -0.00000096       0.00000804
H       11.06299652       1.98665298       6.28480637       0.00001022       0.00002102       0.00000868
H        1.70283205      23.02925136       8.73054863      -0.00000746      -0.00001925      -0.00002629
H       13.85650078      18.91362377       6.33707706       0.00002145       0.00000721      -0.00002445
H        6.25113494      15.84999827       9.59965244       0.00001459       0.00000084       0.00002044
H       10.48906473       4.36726002       8.01560383       0.00001880       0.00000888      -0.00000405
H        1.14027958      20.63992201       8.79070948       0.00000861       0.00000109      -0.00002890
H       15.56796999      20.40393110       7.24505422      -0.00003286      -0.00000566       0.00001419
H        5.10077736      14.95667043       8.75592909      -0.00003624      -0.00000253      -0.00003658
H        9.33867732       3.47404982       7.17179560      -0.00002273       0.00000670      -0.00000103
H       -0.02426376      21.53827202       9.60903114      -0.00002993       0.00002315      -0.00000455
H       14.40359270      21.30246539       8.06342811       0.00001226       0.00000461      -0.00002331
H        5.08601397      14.94644627      10.40975144      -0.00001613      -0.00000465      -0.00000379
H       10.50385598       4.37759726       6.36177939      -0.00000483       0.00000819       0.00000700
H        1.12745576      20.63781036      10.44422253      -0.00001741       0.00000773      -0.00003599
H       14.41622297      21.30440247       6.40991184      -0.00002131       0.00000833      -0.00001781
C        4.34495999      16.74230191       9.58714458      -0.00002819      -0.00001019       0.00004169
C       11.24479937       2.58163967       7.18426553      -0.00000555      -0.00001519       0.00001183
C        1.88398586      22.42742907       9.62548929      -0.00002455       0.00000484       0.00000444
C       13.65963599      19.51494315       7.22895915      -0.00002308       0.00001044      -0.00000112