320
Lattice="24.995422948794626 0.024422776121217096 -0.02194232811914631 -0.023460717690409257 24.63781617819363 0.6760725460541884 0.02093920608429495 0.7452527273481488 24.635820629981364" Properties=species:S:1:pos:R:3:forces:R:3 energy=-986.901682807899 stress="1.3458988240332607e-08 2.093916992068923e-08 6.809666610899244e-08 2.093916992068923e-08 1.235095766741006e-09 1.343988082023085e-07 6.809666610899244e-08 1.343988082023085e-07 -2.9006457266140616e-08" free_energy=-986.901682807899 pbc="T T T"
Cs       7.05833999      13.51553891       4.29288695       0.00001067       0.00002613       0.00001633
Cs       0.81524341       8.39450545       5.17119055       0.00002689      -0.00000788      -0.00000117
Cs       0.82117605       8.21914897      11.69285671       0.00001056       0.00002541       0.00001300
Cs       7.06424387      13.34023668      10.81483109       0.00002521      -0.00000089      -0.00000787
Cs       7.06948609       7.54230972      10.28313414       0.00000201       0.00001634      -0.00001658
Cs       0.81462062      14.74053147      11.49920846       0.00000515      -0.00001541      -0.00000831
Cs       0.81011918      14.19234789       5.70288889      -0.00000638      -0.00000639       0.00001330
Cs       7.06486518       6.99452519       4.48676172       0.00000255      -0.00002489       0.00000749
Pb      22.69216381       4.72629175       7.80755017      -0.00001652      -0.00002276      -0.00001548
Pb       3.93980191      10.86740283       7.99299376      -0.00002076       0.00000334      -0.00001337
Pb      22.68638613      10.88574169       7.97648413      -0.00000738       0.00000739       0.00004966
Pb       3.94562730       4.70794703       7.82402510       0.00003515      -0.00000784      -0.00003309
Pb      22.68695298       4.53995073       1.64857285      -0.00000438      -0.00001014      -0.00000633
Pb       3.93447675      10.68107421       1.83398254      -0.00001032       0.00001277       0.00000715
Pb      22.68113127      10.69942566       1.81752099      -0.00000777      -0.00001821      -0.00001156
Pb       3.94037665       4.52161394       1.66502828      -0.00002277       0.00001448      -0.00001294
I       22.19705234       7.82241065       7.13665163      -0.00000463      -0.00001270      -0.00001136
I        3.44592611      13.92975473       8.83378580       0.00001920      -0.00001439      -0.00001134
I       10.67797466      13.93683995       8.82739690      -0.00000874      -0.00002662       0.00000232
I        4.43361769       7.80502916       7.15228777      -0.00001272       0.00001055      -0.00000387
I        7.06329097      11.35764477       7.50759101       0.00000197      -0.00002392       0.00001073
I        0.80858838      17.50499651       7.67641444       0.00001132      -0.00001296       0.00001170
I        0.81627485      10.37727649       8.47827128      -0.00000955       0.00001107       0.00002396
I        7.07097356       4.22968422       8.30944022      -0.00004523       0.00003055       0.00003032
I        9.68831469      13.78330103       1.15752231      -0.00001651      -0.00001196       0.00003848
I        3.44656501       7.58398832       2.50571781       0.00001161       0.00000376       0.00000671
I       23.18669956       7.97592480      14.80635759       0.00001045      -0.00000797       0.00001496
I        4.43287220      14.15083407      13.48022466      -0.00000306       0.00001897      -0.00000599
I        0.81968659      11.53192011      13.66620972       0.00000687      -0.00002019       0.00001302
I        7.07442626       5.38416405      13.49771504       0.00000246       0.00000783      -0.00000034
I        7.05984873      10.20287121       2.31937865      -0.00003213       0.00000720       0.00002388
I        0.80512944      16.35042211       2.48827061       0.00001122       0.00001654       0.00000009
I       23.17388735      17.89464445      11.20555987      -0.00001241       0.00000109      -0.00000237
I        4.43474829      10.20524560      11.09101464      -0.00000376       0.00000425       0.00003439
I        9.70114132       3.86467737       4.75847407      -0.00000035      -0.00000374      -0.00000717
I        3.44485229      11.52944473       4.89491766       0.00000504       0.00000501      -0.00005625
I       23.17458465      11.54875489       4.87756838      -0.00001967       0.00003010      -0.00002944
I        4.42355418      16.17832146       5.10108263      -0.00000355       0.00001195       0.00000016
I        9.70041477      10.21040792      11.08640489       0.00000633       0.00001498      -0.00001542
I        3.45606734       5.55643364      10.88492348      -0.00001005      -0.00001171      -0.00005376
Cs       7.06880304      13.88821804      16.61112565       0.00001120       0.00001081      -0.00003084
Cs       0.82575752       8.76714433      17.48912105      -0.00000513       0.00002644       0.00001299
Cs       0.83161066       8.59181558      24.01071359       0.00001202      -0.00001273      -0.00000425
Cs       7.07472767      13.71274675      23.13261946       0.00001592      -0.00000046       0.00000924
Cs       7.07989985       7.91505631      22.60097178       0.00002163       0.00000962       0.00000088
Cs       0.82509015      15.11303123      23.81687717       0.00000195       0.00001174       0.00000291
Cs       0.82052146      14.56499834      18.02077115       0.00000436       0.00000556       0.00001211
Cs       7.07539094       7.36707684      16.80474960      -0.00000007      -0.00000619       0.00000456
Pb      22.70267599       5.09882472      20.12544876       0.00002033       0.00001594      -0.00002014
Pb       3.95022829      11.23999258      20.31085674       0.00001118       0.00000081      -0.00000925
Pb      22.69680679      11.25831763      20.29441863       0.00001046      -0.00001125      -0.00000901
Pb       3.95610410       5.08052823      20.14190281      -0.00003903       0.00000133       0.00000013
Pb      22.69737357       4.91259720      13.96648871      -0.00000115       0.00000262       0.00000988
Pb       3.94499187      11.05373005      14.15190658       0.00000402      -0.00000682       0.00000562
Pb      22.69161298      11.07202732      14.13544359      -0.00002086       0.00002439      -0.00000580
Pb       3.95086287       4.89426917      13.98295439       0.00003330       0.00001206       0.00002437
I       22.20761659       8.19496214      19.45455425      -0.00001126       0.00002036      -0.00001246
I        3.45656987      14.30237737      21.15158538      -0.00002081       0.00002306      -0.00000670
I       10.68833817      14.30946089      21.14524188       0.00001556      -0.00002314      -0.00000937
I        4.44396794       8.17761959      19.47012206      -0.00000953       0.00000496       0.00000795
I        7.07376954      11.72987336      19.82553299       0.00001414       0.00002228       0.00000018
I        0.81903810      17.87762127      19.99442515       0.00004557       0.00000030      -0.00002888
I        0.82670287      10.75009542      20.79624005      -0.00001082      -0.00003756      -0.00002344
I        7.08143382       4.60239919      20.62740331       0.00001883      -0.00000108       0.00000954
I        9.69877599      14.15594320      13.47559005      -0.00001139       0.00001703      -0.00000027
I        3.45716367       7.95665676      14.82369042      -0.00001441      -0.00003016      -0.00000185
I       23.17624458       7.60328483       2.48839459       0.00000459       0.00001765       0.00001063
I        4.42242789      13.77815418       1.16222199      -0.00000516      -0.00000751      -0.00000952
I        0.80919434      11.15931682       1.34821907       0.00002250      -0.00000816       0.00003398
I        7.06391891       5.01162507       1.17973890      -0.00000828      -0.00000706      -0.00002215
I        7.07031264      10.57559991      14.63759373       0.00002348      -0.00001414      -0.00000851
I        0.81560728      16.72338394      14.80633024       0.00000907      -0.00002759      -0.00002201
I       23.18427467      18.26724222      23.52345447       0.00000633       0.00000016      -0.00002588
I        4.44507153      10.57787171      23.40889799       0.00001052      -0.00001554       0.00002637
I        9.71167647       4.23727068      17.07638858      -0.00000019       0.00000389       0.00001638
I        3.45530109      11.90213015      17.21281653      -0.00001167       0.00001216      -0.00003023
I       23.18499030      11.92137927      17.19549537      -0.00000337       0.00001299      -0.00001496
I        4.43397114      16.55104336      17.41895028       0.00001505       0.00000754       0.00003168
I        9.71100757      10.58296769      23.40429001      -0.00000774       0.00001172       0.00002197
I        3.46647772       5.92901519      23.20279774      -0.00001092      -0.00000355       0.00000363
Cs       7.07004735       1.19679208       3.95518843       0.00000328      -0.00002192      -0.00002368
Cs       0.80352005      20.71347267       5.50927764       0.00002285       0.00001711      -0.00002203
Cs       0.80946602      20.53812929      12.03107409      -0.00000520      -0.00000902      -0.00002952
Cs       7.07600435       1.02126424      10.47670192       0.00000648       0.00000035       0.00000773
Cs       7.05777737      19.86142099      10.62094871      -0.00000666      -0.00001344       0.00001971
Cs       0.82633227       2.42149651      11.16113951       0.00000638      -0.00000414       0.00000152
Cs       0.82176661       1.87348878       5.36497152       0.00002484      -0.00001907      -0.00000970
Cs       7.05318064      19.31325539       4.82485479      -0.00000531      -0.00000276      -0.00000010
Pb      22.68046718      17.04516002       8.14553034       0.00002273       0.00001173       0.00001314
Pb       3.92803378      23.18628256       8.33103213      -0.00003189      -0.00001347      -0.00000665
Pb      22.67465031      23.20461321       8.31458863       0.00002831      -0.00001261      -0.00005241
Pb       3.93392800      17.02681474       8.16198512      -0.00001751       0.00000807      -0.00001647
Pb      22.67523841      16.85884775       1.98652044      -0.00003100       0.00002040       0.00005252
Pb       3.92283249      22.99997246       2.17210131      -0.00004780      -0.00002964       0.00001013
Pb      22.66940403      23.01829547       2.15560333       0.00002003       0.00001109       0.00003347
Pb       3.92865561      16.84050033       2.00302621       0.00001486       0.00001476       0.00003445
I       22.18537192      20.14129662       7.47463918      -0.00000116       0.00000054       0.00000319
I        3.45773166       1.61083499       8.49573734      -0.00000895       0.00001986      -0.00000401
I       10.68959530       1.61794036       8.48932387       0.00001599      -0.00004088       0.00000903
I        4.42179025      20.12392183       7.49021171      -0.00000464       0.00000216       0.00002293
I        7.05156304      23.67623625       7.84567540       0.00001870       0.00001382       0.00000421
I        0.82029407       5.18614703       7.33854507       0.00001217      -0.00000437      -0.00000279
I        0.80452754      22.69621977       8.81645023       0.00000492      -0.00000184      -0.00000968
I        7.05925909      16.54867179       8.64759197      -0.00000550       0.00001037      -0.00001600
I        9.69996995       1.46440735       0.81968164       0.00000395      -0.00002229      -0.00000228
I        3.43492301      19.90286678       2.84384376      -0.00001230      -0.00000890      -0.00001361
I       23.17489989      20.29483164      15.14445655      -0.00000000       0.00002449      -0.00001640
I        4.44462188       1.83193155      13.14210167      -0.00001424      -0.00001590       0.00001357
I        0.80794245      23.85084459      14.00446312      -0.00000132       0.00000901       0.00000077
I        7.06268309      17.70317674      13.83549829       0.00001411       0.00002042      -0.00000137
I        7.04812621      22.52186576       2.65787387      -0.00001157      -0.00000287      -0.00000563
I        0.81684185       4.03158489       2.15039049       0.00004311       0.00001356      -0.00000981
I       23.18553068       5.57568093      10.86758907      -0.00000089       0.00000081      -0.00004155
I        4.42296011      22.52418158      11.42909159      -0.00000229      -0.00000477       0.00002697
I        9.68935155      16.18346660       5.09643028       0.00000799       0.00000754       0.00000247
I        3.43308647      23.84843792       5.23300296      -0.00000648       0.00001414      -0.00002283
I       23.16282801      23.86769114       5.21565821      -0.00003560       0.00000322      -0.00000048
I        4.43516937       3.85955604       4.76309149       0.00002323      -0.00000588       0.00003197
I        9.68879126      22.52932923      11.42446806      -0.00001570       0.00000649       0.00001409
I        3.44424727      17.87536749      11.22286179       0.00000870      -0.00000342      -0.00000423
Cs       7.08059586       1.56945775      16.27284478      -0.00001057      -0.00001161       0.00002453
Cs       0.81402989      21.08609164      17.82711595       0.00000470      -0.00000716       0.00002017
Cs       0.81996495      20.91067377      24.34889874       0.00000042       0.00000461      -0.00001671
Cs       7.08643757       1.39399455      22.79467403       0.00000882      -0.00000367       0.00000898
Cs       7.06821682      20.23390540      22.93898302       0.00000746       0.00001010      -0.00001462
Cs       0.83681913       2.79411579      23.47907115      -0.00000667      -0.00001766       0.00000093
Cs       0.83227501       2.24611724      17.68271656      -0.00000814      -0.00000459       0.00001231
Cs       7.06365450      19.68591370      17.14267906       0.00000418      -0.00001226       0.00000970
Pb      22.69089459      17.41783023      20.46340239       0.00000050      -0.00002328      -0.00001306
Pb       3.93855347      23.55893254      20.64893952      -0.00003195       0.00000371      -0.00000780
Pb      22.68512835      23.57719722      20.63249955       0.00001799       0.00000461       0.00000422
Pb       3.94441215      17.39948750      20.47986866       0.00000624       0.00000064      -0.00002210
Pb      22.68567134      17.23152446      14.30445626       0.00002259      -0.00001883      -0.00000988
Pb       3.93328229      23.37267313      14.48999146       0.00000982      -0.00001163       0.00002002
Pb      22.67982596      23.39096368      14.47356010       0.00000823      -0.00000298      -0.00000044
Pb       3.93916604      17.21321680      14.32088291      -0.00002736       0.00000453       0.00004013
I       22.19575467      20.51391254      19.79247813       0.00001597       0.00002140       0.00001912
I        3.46809952       1.98345325      20.81362775       0.00002430      -0.00000093       0.00000367
I       10.70014850       1.99054494      20.80734113      -0.00001761      -0.00000251      -0.00001078
I        4.43236666      20.49658401      19.80814218      -0.00000422      -0.00001946       0.00001457
I        7.06203379      24.04917977      20.16353740      -0.00000167      -0.00001311       0.00000107
I        0.83077782       5.55872737      19.65636450      -0.00000334      -0.00001344      -0.00000753
I        0.81502697      23.06874176      21.13428111      -0.00001979       0.00001536       0.00000117
I        7.06973729      16.92122801      20.96540560      -0.00006869       0.00002480      -0.00000063
I        9.71047732       1.83704023      13.13747156       0.00000292      -0.00001164       0.00001473
I        3.44545431      20.27557448      15.16176380       0.00000825      -0.00000045      -0.00002750
I       23.16453341      19.92216357       2.82648214       0.00000116      -0.00001365      -0.00000292
I        4.43412740       1.45923997       0.82430901       0.00002589       0.00004256      -0.00001098
I        0.79749420      23.47815641       1.68646925       0.00002768      -0.00000878      -0.00001610
I        7.05219022      17.33050891       1.51771554       0.00000410      -0.00001530       0.00000111
I        7.05859648      22.89448910      14.97566520      -0.00000413       0.00000958      -0.00003143
I        0.82731729       4.40441358      14.46822059      -0.00000605      -0.00004772       0.00000889
I       23.19603182       5.94826865      23.18547539      -0.00000402       0.00000044      -0.00001025
I        4.43351485      22.89683750      23.74700041      -0.00000990      -0.00001729       0.00003070
I        9.69988535      16.55614773      17.41431008      -0.00000694       0.00001556       0.00000871
I        3.44364291      24.22112070      17.55090297      -0.00001213      -0.00002473      -0.00002413
I       23.17322861      24.24035389      17.53359480      -0.00000911      -0.00000250      -0.00002205
I        4.44567649       4.23209255      17.08099776       0.00001658       0.00001690       0.00000068
I        9.69910457      22.90200275      23.74237063       0.00001419      -0.00001208       0.00002698
I        3.45479835      18.24790365      23.54079388      -0.00001150       0.00001499      -0.00002050
Cs      19.55612730      13.52782325       4.28211131      -0.00000877      -0.00000129      -0.00001553
Cs      13.31297938       8.40682355       5.16018360      -0.00001021      -0.00000714       0.00000300
Cs      13.31886756       8.23144366      11.68180591      -0.00000106      -0.00001490       0.00001480
Cs      19.56200894      13.35241722      10.80380879      -0.00000498       0.00000316       0.00001274
Cs      19.56717184       7.55475088      10.27207902      -0.00000629       0.00000344      -0.00001193
Cs      13.31238418      14.75253495      11.48826219      -0.00000883       0.00002064      -0.00002455
Cs      13.30780658      14.20453445       5.69184283      -0.00000893      -0.00002021       0.00002926
Cs      19.56261120       7.00671515       4.47582887       0.00000687      -0.00000224      -0.00001012
Pb      10.19449362       4.71409539       7.81849755       0.00002910      -0.00000423      -0.00000214
Pb      16.43747225      10.87966294       7.98198497       0.00000962      -0.00001504      -0.00000834
Pb      10.18857242      10.87354646       7.98748080       0.00001987      -0.00004041       0.00000837
Pb      16.44337617       4.72020708       7.81303503      -0.00002620      -0.00002042      -0.00002478
Pb      10.18926389       4.52771651       1.65956271      -0.00000836       0.00002112      -0.00000077
Pb      16.43227175      10.69329891       1.82301866       0.00000906       0.00000526      -0.00001679
Pb      10.18340136      10.68717133       1.82850293       0.00001213       0.00000981      -0.00002361
Pb      16.43815040       4.53384067       1.65408569       0.00001171      -0.00000160       0.00000330
I        9.69926906       7.81019976       7.14760072       0.00001490       0.00005065       0.00002237
I       15.94365322      13.94200956       8.82272696       0.00001939      -0.00001632       0.00000591
I       23.17569591      13.94904810       8.81641143      -0.00002541      -0.00002072      -0.00000320
I       16.93128081       7.81727715       7.14128541      -0.00000435       0.00001553      -0.00000666
I       19.56103113      11.36967873       7.49667022       0.00000162      -0.00001140       0.00000576
I       13.30629600      17.51722823       7.66525116       0.00000274       0.00000568       0.00001397
I       13.31393693      10.38960128       8.46727286      -0.00001112       0.00000855       0.00000353
I       19.56867061       4.24197953       8.29873341       0.00000046       0.00000347      -0.00001081
I       22.18593932      13.79553962       1.14662897      -0.00000495       0.00000012      -0.00000640
I       15.94435330       7.59622159       2.49478887       0.00001503      -0.00003022       0.00000181
I       10.68896722       7.96366752      14.81733991       0.00002080       0.00002033      -0.00000888
I       16.93059266      14.16302669      13.46920659       0.00000151       0.00001369       0.00001100
I       13.31737157      11.54405320      13.65539587       0.00000642       0.00001156      -0.00000515
I       19.57209634       5.39663416      13.48661793      -0.00001194      -0.00000354       0.00001080
I       19.55760074      10.21516857       2.30860949      -0.00001502      -0.00001204       0.00000262
I       13.30285424      16.36272818       2.47734637       0.00001820       0.00001334      -0.00001389
I       10.67621869      17.88235376      11.21648584      -0.00000585       0.00000508      -0.00000194
I       16.93232224      10.21752506      11.08002344      -0.00000850      -0.00000222       0.00002667
I       22.19879047       3.87690836       4.74749008      -0.00001292      -0.00000922       0.00004746
I       15.94262251      11.54172044       4.88391107       0.00000417       0.00002011       0.00000656
I       10.67675168      11.53658195       4.88855987      -0.00001789       0.00000220      -0.00003138
I       16.92130641      16.19061141       5.09007788      -0.00000683       0.00000154       0.00001416
I       22.19825415      10.22263488      11.07540335      -0.00000008       0.00000619      -0.00001235
I       15.95367634       5.56858781      10.87392607      -0.00000365       0.00002414       0.00000108
Cs      19.56656228      13.90031571      16.60004411       0.00000637       0.00002111      -0.00002780
Cs      13.32344196       8.77939624      17.47814143      -0.00001466       0.00000432      -0.00000692
Cs      13.32939096       8.60397699      23.99981188      -0.00001313      -0.00000092       0.00000426
Cs      19.57243632      13.72499845      23.12161885      -0.00000016       0.00000242       0.00001836
Cs      19.57763991       7.92726709      22.58986885       0.00000747       0.00000734       0.00003227
Cs      13.32279812      15.12513781      23.80606490       0.00001031       0.00002303      -0.00001597
Cs      13.31826664      14.57718770      18.00975731       0.00000286       0.00000686       0.00001593
Cs      19.57309223       7.37934381      16.79377380      -0.00000313       0.00000755      -0.00000142
Pb      10.20498611       5.08666258      20.13644591      -0.00000515      -0.00001292       0.00000343
Pb      16.44792539      11.25222628      20.29991221      -0.00001431       0.00000278       0.00002049
Pb      10.19913239      11.24610244      20.30538609      -0.00003465       0.00003259       0.00002797
Pb      16.45382709       5.09278028      20.13094039       0.00000506      -0.00001547       0.00001055
Pb      10.19979973       4.90033459      13.97747922      -0.00003131      -0.00000142      -0.00002399
Pb      16.44269682      11.06591800      14.14095309       0.00003658       0.00000027      -0.00002039
Pb      10.19384004      11.05980349      14.14644301      -0.00002736      -0.00001315       0.00001452
Pb      16.44860453       4.90647800      13.97197720      -0.00000816      -0.00000838      -0.00003724
I        9.70986381       8.18278576      19.46553999      -0.00000367      -0.00001844      -0.00001056
I       15.95415920      14.31460641      21.14060819       0.00001239      -0.00004319       0.00000513
I       23.18595939      14.32166419      21.13424273       0.00001443      -0.00000315       0.00001319
I       16.94164155       8.18984943      19.45913526       0.00002434       0.00001501       0.00000883
I       19.57146758      11.74208897      19.81453231      -0.00000770       0.00001808      -0.00000237
I       13.31675557      17.88987652      19.98324407       0.00002326      -0.00000459       0.00000266
I       13.32441838      10.76217688      20.78528647       0.00003587      -0.00000526      -0.00000462
I       19.57915647       4.61454731      20.61648590      -0.00002507      -0.00001169       0.00000939
I       22.19648201      14.16818729      13.46459586      -0.00000695      -0.00001027       0.00000565
I       15.95473342       7.96884701      14.81266117       0.00002106      -0.00002116       0.00000738
I       10.67849965       7.59105470       2.49942573       0.00000683       0.00000101      -0.00000156
I       16.92015279      13.79038756       1.15123195       0.00000627      -0.00000016       0.00002082
I       13.30693308      11.17142607       1.33744644       0.00000700       0.00000084       0.00000935
I       19.56165579       5.02394123       1.16869723      -0.00004687      -0.00000214      -0.00000697
I       19.56805087      10.58770305      14.62638974      -0.00001219       0.00002857       0.00001878
I       13.31334308      16.73550869      14.79529664      -0.00002131      -0.00003577       0.00000303
I       10.68657968      18.25497565      23.53441198       0.00001074      -0.00000107      -0.00000027
I       16.94285629      10.59006061      23.39793814      -0.00000473       0.00001208       0.00002160
I       22.20924746       4.24948739      17.06539636       0.00000989      -0.00000275       0.00000332
I       15.95305767      11.91432422      17.20185930      -0.00000227       0.00001781      -0.00003336
I       10.68727939      11.90918861      17.20648656      -0.00001350       0.00000386      -0.00003877
I       16.93180266      16.56319173      17.40797422      -0.00001320       0.00003202      -0.00002140
I       22.20860741      10.59523809      23.39331699       0.00001277      -0.00000405       0.00001941
I       15.96421788       5.94118849      23.19185502      -0.00000265       0.00000036      -0.00003811
Cs      19.56783137       1.20884959       3.94415672       0.00000742       0.00000614      -0.00000101
Cs      13.30122967      20.72579538       5.49820632      -0.00000118      -0.00000146      -0.00001066
Cs      13.30713225      20.55035075      12.02002657       0.00000059       0.00000228      -0.00001473
Cs      19.57373482       1.03340596      10.46580587      -0.00000521       0.00002092      -0.00000309
Cs      19.55543707      19.87368344      10.60999484       0.00000926      -0.00001171       0.00000559
Cs      13.32410434       2.43365471      11.15009262      -0.00001435       0.00000271       0.00001464
Cs      13.31953780       1.88568383       5.35395768      -0.00000038       0.00000562       0.00000189
Cs      19.55088633      19.32552509       4.81387226       0.00001034       0.00000622      -0.00000337
Pb      10.18279862      17.03292604       8.15645828      -0.00001874       0.00000967      -0.00000500
Pb      16.42574099      23.19852293       8.32006321      -0.00001203       0.00000086       0.00000346
Pb      10.17690446      23.19240179       8.32551582       0.00001298       0.00001540       0.00004778
Pb      16.43159206      17.03908451       8.15098069       0.00002801      -0.00000432       0.00001134
Pb      10.17752408      16.84661515       1.99752599      -0.00000245      -0.00001736      -0.00001205
Pb      16.42053238      23.01216777       2.16114044       0.00000934       0.00001322      -0.00000835
Pb      10.17161319      23.00608842       2.16660779      -0.00000649       0.00000066      -0.00002208
Pb      16.42639830      16.85273961       1.99201718      -0.00000089      -0.00001154      -0.00000376
I        9.68767254      20.12908073       7.48558948       0.00000381       0.00000079       0.00000649
I       15.95549409       1.62308617       8.48471412      -0.00000225      -0.00001360       0.00000834
I       23.18732799       1.63013277       8.47835829      -0.00000134       0.00002468       0.00003246
I       16.91945185      20.13617332       7.47921765       0.00002145      -0.00000819       0.00001431
I       19.54930483      23.68841890       7.83475923      -0.00002116       0.00001373      -0.00000901
I       13.31802910       5.19839202       7.32744195       0.00001308      -0.00002099       0.00000708
I       13.30222663      22.70847239       8.80540809      -0.00000793       0.00001215      -0.00000148
I       19.55694201      16.56092821       8.63667774      -0.00003448      -0.00000614      -0.00003849
I       22.19768037       1.47662046       0.80868607      -0.00000470      -0.00001348       0.00000015
I       15.93261834      19.91508737       2.83284476       0.00000208      -0.00000644       0.00000438
I       10.67722458      20.28260596      15.15541571      -0.00000555      -0.00000304      -0.00002392
I       16.94243204       1.84412114      13.13123662      -0.00001548       0.00002625      -0.00000855
I       13.30563873      23.86306140      13.99346162       0.00000644      -0.00000952      -0.00000694
I       19.56037830      17.71541663      13.82448558      -0.00002201       0.00002039       0.00000845
I       19.54587064      22.53399525       2.64666270      -0.00003526       0.00001719       0.00000905
I       13.31459743       4.04384551       2.13939361       0.00001893      -0.00000230       0.00000335
I       10.68781944       5.56349385      10.87855377       0.00001977      -0.00002118      -0.00002007
I       16.92058955      22.53638552      11.41812620      -0.00000489       0.00000405      -0.00001314
I       22.18713364      16.19578944       5.08548618      -0.00001008      -0.00001726      -0.00002777
I       15.93089868      23.86069750       5.22203081      -0.00000281      -0.00000558      -0.00002062
I       10.66506799      23.85552695       5.22663980      -0.00001421       0.00001830      -0.00002320
I       16.93306575       3.87175259       4.75212885       0.00001066      -0.00001477       0.00000936
I       22.18652228      22.54155562      11.41349864      -0.00001326      -0.00002123       0.00003636
I       15.94188691      17.88754007      11.21188307       0.00001111      -0.00000774      -0.00002069