320
Lattice="35.81623740541413 -0.1329439104750467 -0.13785697378851416 0.08207128056522095 20.946974158443254 0.0191518666311567 0.05660661425602334 -0.01212509216802617 19.253753256199264" Properties=species:S:1:pos:R:3:forces:R:3 energy=-995.5496691689153 stress="0.0014329021823761643 7.869758290558355e-06 -3.9113069497686445e-05 7.869758290558355e-06 0.0015107516335551485 1.961638813815987e-05 -3.9113069497686445e-05 1.961638813815987e-05 0.0014155707708513664" free_energy=-995.5496691689153 pbc="T T T"
Cs      32.85358959       7.52817600      18.14493401       0.00001198      -0.00000114       0.00000429
Cs       3.22853822      16.38114026      15.85934108      -0.00000225      -0.00000280      -0.00000543
Cs      30.08414456      12.77526880      18.15989032       0.00001250      -0.00000003       0.00001272
Cs       5.99796524      11.13403191      15.84437355      -0.00001029       0.00000724      -0.00000588
Cs      32.81113653       7.53724165       3.70462050       0.00000206       0.00001049      -0.00001216
Cs       3.18609125      16.39023767       1.41902554      -0.00000223       0.00000052      -0.00000917
Cs      30.04172270      12.78437442       3.71960216       0.00000299      -0.00000421      -0.00001092
Cs       5.95550383      11.14313524       1.40405130      -0.00000805       0.00000399      -0.00000154
Pb      28.06736027       8.36980379      15.75741637      -0.00001752       0.00001537      -0.00000164
Pb       8.01480044      15.53949580      18.24684800      -0.00005101      -0.00001558      -0.00000088
Pb      34.86244913      13.58149718      15.73527068       0.00003572      -0.00002778       0.00000251
Pb       1.21966169      10.32780561      18.26895976       0.00002754       0.00002766       0.00000289
Pb      28.02488895       8.37891074       1.31709764       0.00000570       0.00000968      -0.00000115
Pb       7.97232300      15.54863055       3.80653511      -0.00004832      -0.00003167      -0.00000574
Pb      34.81995405      13.59053951       1.29493795       0.00005100      -0.00000653       0.00000640
Pb       1.17727023      10.33696071       3.82864914      -0.00001853       0.00000610       0.00001410
I       26.95845243      10.23209803      18.16912722       0.00002036      -0.00000551      -0.00001323
I       27.03178392      13.61075424      15.76617757       0.00000379       0.00000429       0.00001551
I        0.18377987      15.56805466      18.27747129      -0.00001325      -0.00001596      -0.00000839
I        0.08212707       8.47419513      15.86461178      -0.00001193       0.00001577       0.00000748
I        7.05330591       7.10413328      15.83472917       0.00001014      -0.00000741      -0.00000666
I       29.02882956      16.80519348      18.16956115       0.00000934      -0.00000839      -0.00000249
I        2.14192941      12.35880105      15.86091914      -0.00001426      -0.00001076      -0.00001317
I       33.94018972      11.55050632      18.14332396       0.00000345       0.00000347      -0.00000111
I       30.82058296       9.80750101      15.74766394      -0.00001597      -0.00000489      -0.00000213
I        5.26156102      14.10180114      18.25660436       0.00004328       0.00002555      -0.00000184
I       32.12028423      15.03984258      15.74792775      -0.00004257       0.00001791      -0.00001337
I        3.96184202       8.86946847      18.25635431       0.00001131      -0.00000337       0.00000682
I       26.91600757      10.24118038       3.72881753       0.00000055      -0.00000190      -0.00000279
I       26.98933846      13.61985236       1.32591266      -0.00000448       0.00000129       0.00000142
I        0.14133298      15.57710936       3.83709145      -0.00000246       0.00000264       0.00001898
I        0.03964242       8.48332550       1.42436930       0.00000271      -0.00000634       0.00000264
I        7.01085272       7.11322477       1.39435734      -0.00000517      -0.00000333       0.00002122
I       28.98637380      16.81429061       3.72923375      -0.00000023      -0.00001299       0.00001123
I        2.09945976      12.36789894       1.42051209      -0.00000567      -0.00002409       0.00003431
I       33.89776707      11.55960332       3.70307615      -0.00000495       0.00000309      -0.00001684
I       30.77811454       9.81660771       1.30736136       0.00000476      -0.00000285      -0.00000712
I        5.21909318      14.11090372       3.81629878       0.00004998       0.00002069      -0.00001045
I       32.07780734      15.04891742       1.30758411      -0.00003407       0.00002036      -0.00000227
I        3.91942131       8.87856589       3.81604601       0.00000403       0.00000128      -0.00000627
Cs      32.82528628       7.53423854       8.51805738       0.00001199      -0.00000115       0.00000430
Cs       3.20023492      16.38720280       6.23246445      -0.00000226      -0.00000280      -0.00000542
Cs      30.05584125      12.78133134       8.53301369       0.00001250      -0.00000003       0.00001272
Cs       5.96966194      11.14009445       6.21749692      -0.00001030       0.00000725      -0.00000588
Cs      32.83943983       7.53117910      13.33149712       0.00000206       0.00001050      -0.00001215
Cs       3.21439456      16.38417512      11.04590217      -0.00000223       0.00000052      -0.00000918
Cs      30.07002600      12.77831187      13.34647878       0.00000300      -0.00000421      -0.00001091
Cs       5.98380714      11.13707269      11.03092793      -0.00000805       0.00000400      -0.00000154
Pb      28.03905696       8.37586633       6.13053974      -0.00001751       0.00001538      -0.00000163
Pb       7.98649714      15.54555834       8.61997137      -0.00005103      -0.00001556      -0.00000087
Pb      34.83414582      13.58755972       6.10839405       0.00003574      -0.00002776       0.00000253
Pb       1.19135839      10.33386815       8.64208313       0.00002753       0.00002766       0.00000290
Pb      28.05319225       8.37284819      10.94397426       0.00000570       0.00000967      -0.00000114
Pb       8.00062631      15.54256800      13.43341174      -0.00004833      -0.00003165      -0.00000572
Pb      34.84825735      13.58447696      10.92181457       0.00005101      -0.00000653       0.00000642
Pb       1.20557354      10.33089816      13.45552577      -0.00001854       0.00000611       0.00001410
I       26.93014912      10.23816057       8.54225059       0.00002036      -0.00000551      -0.00001323
I       27.00348061      13.61681678       6.13930094       0.00000379       0.00000430       0.00001552
I        0.15547657      15.57411720       8.65059466      -0.00001325      -0.00001596      -0.00000839
I        0.05382377       8.48025767       6.23773515      -0.00001193       0.00001578       0.00000748
I        7.02500261       7.11019582       6.20785254       0.00001012      -0.00000739      -0.00000665
I       29.00052625      16.81125602       8.54268452       0.00000934      -0.00000838      -0.00000248
I        2.11362611      12.36486359       6.23404251      -0.00001427      -0.00001076      -0.00001317
I       33.91188641      11.55656886       8.51644733       0.00000347       0.00000347      -0.00000111
I       30.79227965       9.81356355       6.12078731      -0.00001596      -0.00000489      -0.00000212
I        5.23325772      14.10786368       8.62972773       0.00004328       0.00002555      -0.00000183
I       32.09198092      15.04590512       6.12105112      -0.00004256       0.00001791      -0.00001336
I        3.93353872       8.87553101       8.62947768       0.00001130      -0.00000337       0.00000682
I       26.94431087      10.23511783      13.35569415       0.00000056      -0.00000189      -0.00000278
I       27.01764176      13.61378981      10.95278928      -0.00000448       0.00000130       0.00000144
I        0.16963629      15.57104681      13.46396808      -0.00000247       0.00000264       0.00001897
I        0.06794573       8.47726295      11.05124593       0.00000272      -0.00000633       0.00000263
I        7.03915603       7.10716222      11.02123397      -0.00000516      -0.00000332       0.00002121
I       29.01467710      16.80822806      13.35611037      -0.00000022      -0.00001298       0.00001126
I        2.12776307      12.36183639      11.04738872      -0.00000568      -0.00002410       0.00003431
I       33.92607037      11.55354077      13.32995277      -0.00000493       0.00000311      -0.00001683
I       30.80641784       9.81054516      10.93423798       0.00000477      -0.00000285      -0.00000711
I        5.24739649      14.10484117      13.44317541       0.00004997       0.00002069      -0.00001045
I       32.10611064      15.04285487      10.93446073      -0.00003406       0.00002036      -0.00000227
I        3.94772462       8.87250334      13.44292264       0.00000403       0.00000129      -0.00000627
Cs      32.89462523      18.00166308      18.15450995       0.00001198      -0.00000115       0.00000429
Cs       3.18750258       5.90765318      15.84976514      -0.00000225      -0.00000280      -0.00000542
Cs      30.04310892       2.30178172      18.15031439       0.00001250      -0.00000003       0.00001271
Cs       5.95692960       0.66054483      15.83479761      -0.00001029       0.00000724      -0.00000588
Cs      32.85217217      18.01072873       3.71419643       0.00000206       0.00001049      -0.00001215
Cs       3.14505561       5.91675059       1.40944961      -0.00000223       0.00000052      -0.00000918
Cs      30.00068706       2.31088734       3.71002622       0.00000299      -0.00000421      -0.00001091
Cs       5.91446819       0.66964816       1.39447537      -0.00000805       0.00000400      -0.00000155
Pb      28.10839591      18.84329087      15.76699231      -0.00001752       0.00001537      -0.00000165
Pb       7.97376480       5.06600872      18.23727206      -0.00005102      -0.00001557      -0.00000087
Pb      34.82141349       3.10801010      15.72569475       0.00003572      -0.00002777       0.00000250
Pb       1.26069733      20.80129269      18.27853569       0.00002754       0.00002766       0.00000290
Pb      28.06592459      18.85239782       1.32667357       0.00000569       0.00000967      -0.00000112
Pb       7.93128736       5.07514347       3.79695918      -0.00004832      -0.00003165      -0.00000575
Pb      34.77891841       3.11705243       1.28536201       0.00005100      -0.00000652       0.00000642
Pb       1.21830587      20.81044779       3.83822507      -0.00001853       0.00000610       0.00001411
I       26.99948807      20.70558511      18.17870316       0.00002036      -0.00000551      -0.00001324
I       26.99074828       3.13726716      15.75660164       0.00000379       0.00000429       0.00001551
I        0.14274423       5.09456758      18.26789535      -0.00001324      -0.00001595      -0.00000838
I        0.12316271      18.94768221      15.87418771      -0.00001192       0.00001577       0.00000749
I        7.09434155      17.57762036      15.84430510       0.00001014      -0.00000741      -0.00000665
I       28.98779392       6.33170640      18.15998522       0.00000933      -0.00000838      -0.00000249
I        2.10089377       1.88531397      15.85134320      -0.00001426      -0.00001076      -0.00001316
I       33.89915408       1.07701924      18.13374803       0.00000345       0.00000347      -0.00000112
I       30.86161860      20.28098809      15.75723988      -0.00001597      -0.00000489      -0.00000213
I        5.22052538       3.62831406      18.24702842       0.00004328       0.00002555      -0.00000183
I       32.07924859       4.56635550      15.73835182      -0.00004257       0.00001790      -0.00001337
I        4.00287766      19.34295555      18.26593024       0.00001131      -0.00000337       0.00000682
I       26.95704321      20.71466746       3.73839346       0.00000056      -0.00000190      -0.00000279
I       26.94830282       3.14636528       1.31633672      -0.00000449       0.00000130       0.00000145
I        0.10029734       5.10362228       3.82751552      -0.00000247       0.00000264       0.00001898
I        0.08067806      18.95681258       1.43394523       0.00000272      -0.00000634       0.00000263
I        7.05188836      17.58671185       1.40393327      -0.00000517      -0.00000332       0.00002122
I       28.94533816       6.34080353       3.71965781      -0.00000023      -0.00001299       0.00001124
I        2.05842412       1.89441186       1.41093616      -0.00000567      -0.00002409       0.00003430
I       33.85673143       1.08611624       3.69350021      -0.00000495       0.00000310      -0.00001684
I       30.81915018      20.29009479       1.31693729       0.00000477      -0.00000285      -0.00000712
I        5.17805754       3.63741664       3.80672285       0.00004998       0.00002069      -0.00001046
I       32.03677170       4.57543034       1.29800817      -0.00003407       0.00002036      -0.00000227
I        3.96045695      19.35205297       3.82562194       0.00000403       0.00000128      -0.00000627
Cs      32.86632192      18.00772562       8.52763332       0.00001199      -0.00000114       0.00000429
Cs       3.15919928       5.91371572       6.22288851      -0.00000226      -0.00000279      -0.00000542
Cs      30.01480561       2.30784426       8.52343776       0.00001250      -0.00000003       0.00001272
Cs       5.92862630       0.66660737       6.20792098      -0.00001030       0.00000725      -0.00000588
Cs      32.88047547      18.00466618      13.34107306       0.00000206       0.00001049      -0.00001216
Cs       3.17335892       5.91068804      11.03632623      -0.00000223       0.00000052      -0.00000917
Cs      30.02899036       2.30482479      13.33690285       0.00000300      -0.00000421      -0.00001091
Cs       5.94277150       0.66358561      11.02135199      -0.00000805       0.00000400      -0.00000154
Pb      28.08009260      18.84935341       6.14011568      -0.00001752       0.00001538      -0.00000165
Pb       7.94546150       5.07207126       8.61039543      -0.00005103      -0.00001556      -0.00000085
Pb      34.79311018       3.11407264       6.09881812       0.00003574      -0.00002777       0.00000252
Pb       1.23239403      20.80735523       8.65165906       0.00002753       0.00002766       0.00000290
Pb      28.09422789      18.84633527      10.95355020       0.00000570       0.00000967      -0.00000115
Pb       7.95959067       5.06908092      13.42383580      -0.00004833      -0.00003165      -0.00000571
Pb      34.80722171       3.11098988      10.91223864       0.00005101      -0.00000653       0.00000641
Pb       1.24660918      20.80438524      13.46510170      -0.00001854       0.00000611       0.00001409
I       26.97118476      20.71164765       8.55182653       0.00002036      -0.00000550      -0.00001324
I       26.96244497       3.14332970       6.12972501       0.00000379       0.00000431       0.00001551
I        0.11444093       5.10063012       8.64101872      -0.00001326      -0.00001596      -0.00000838
I        0.09485941      18.95374475       6.24731108      -0.00001193       0.00001578       0.00000749
I        7.06603825      17.58368290       6.21742847       0.00001012      -0.00000740      -0.00000665
I       28.95949061       6.33776894       8.53310859       0.00000934      -0.00000838      -0.00000250
I        2.07259047       1.89137651       6.22446657      -0.00001427      -0.00001076      -0.00001316
I       33.87085077       1.08308178       8.50687140       0.00000346       0.00000347      -0.00000111
I       30.83331529      20.28705063       6.13036325      -0.00001596      -0.00000489      -0.00000213
I        5.19222208       3.63437660       8.62015179       0.00004328       0.00002556      -0.00000183
I       32.05094528       4.57241804       6.11147519      -0.00004256       0.00001791      -0.00001337
I        3.97457436      19.34901809       8.63905361       0.00001130      -0.00000337       0.00000682
I       26.98534651      20.70860491      13.36527009       0.00000056      -0.00000190      -0.00000279
I       26.97660612       3.14030273      10.94321335      -0.00000448       0.00000130       0.00000144
I        0.12860065       5.09755973      13.45439214      -0.00000247       0.00000264       0.00001899
I        0.10898137      18.95075003      11.06082186       0.00000272      -0.00000633       0.00000263
I        7.08019167      17.58064930      11.03080990      -0.00000516      -0.00000332       0.00002122
I       28.97364146       6.33474098      13.34653444      -0.00000022      -0.00001298       0.00001124
I        2.08672743       1.88834931      11.03781278      -0.00000568      -0.00002409       0.00003432
I       33.88503473       1.08005369      13.32037684      -0.00000493       0.00000311      -0.00001683
I       30.84745348      20.28403224      10.94381392       0.00000477      -0.00000285      -0.00000712
I        5.20636085       3.63135409      13.43359947       0.00004997       0.00002069      -0.00001045
I       32.06507500       4.56936779      10.92488480      -0.00003406       0.00002036      -0.00000227
I        3.98876026      19.34599042      13.45249857       0.00000403       0.00000129      -0.00000627
Cs      14.94547089       7.59464795      18.21386250       0.00001198      -0.00000114       0.00000429
Cs      21.13665693      16.31466830      15.79041259      -0.00000226      -0.00000280      -0.00000543
Cs      12.17602586      12.84174075      18.22881881       0.00001250      -0.00000003       0.00001271
Cs      23.90608395      11.06755995      15.77544506      -0.00001029       0.00000725      -0.00000588
Cs      14.90301782       7.60371360       3.77354898       0.00000206       0.00001050      -0.00001215
Cs      21.09420995      16.32376571       1.35009705      -0.00000223       0.00000052      -0.00000917
Cs      12.13360399      12.85084637       3.78853064       0.00000300      -0.00000421      -0.00001091
Cs      23.86362253      11.07666328       1.33512281      -0.00000805       0.00000400      -0.00000154
Pb      10.15924157       8.43627574      15.82634486      -0.00001753       0.00001538      -0.00000164
Pb      25.92291915      15.47302384      18.17791951      -0.00005103      -0.00001556      -0.00000086
Pb      16.95433043      13.64796913      15.80419917       0.00003573      -0.00002776       0.00000251
Pb      19.12778040      10.26133365      18.20003127       0.00002753       0.00002766       0.00000289
Pb      10.11677024       8.44538269       1.38602612       0.00000570       0.00000968      -0.00000114
Pb      25.88044170      15.48215859       3.73760662      -0.00004832      -0.00003165      -0.00000573
Pb      16.91183534      13.65701146       1.36386643       0.00005101      -0.00000653       0.00000642
Pb      19.08538893      10.27048875       3.75972065      -0.00001853       0.00000612       0.00001410
I        9.05033373      10.29856998      18.23805571       0.00002035      -0.00000550      -0.00001324
I        9.12366522      13.67722619      15.83510606       0.00000378       0.00000430       0.00001552
I       18.09189858      15.50158270      18.20854280      -0.00001325      -0.00001596      -0.00000839
I       17.99024578       8.40772317      15.79568329      -0.00001193       0.00001578       0.00000748
I       24.96142462       7.03766132      15.76580068       0.00001012      -0.00000740      -0.00000665
I       11.12071086      16.87166543      18.23848964       0.00000932      -0.00000838      -0.00000249
I       20.05004812      12.29232909      15.79199065      -0.00001427      -0.00001076      -0.00001317
I       16.03207102      11.61697827      18.21225245       0.00000346       0.00000347      -0.00000112
I       12.91246426       9.87397296      15.81659243      -0.00001597      -0.00000489      -0.00000213
I       23.16967973      14.03532918      18.18767587       0.00004328       0.00002555      -0.00000183
I       14.21216553      15.10631453      15.81685624      -0.00004257       0.00001791      -0.00001337
I       21.86996073       8.80299651      18.18742582       0.00001130      -0.00000337       0.00000682
I        9.00788886      10.30765233       3.79774601       0.00000056      -0.00000189      -0.00000277
I        9.08121975      13.68632431       1.39484114      -0.00000448       0.00000130       0.00000144
I       18.04945168      15.51063740       3.76816296      -0.00000246       0.00000265       0.00001899
I       17.94776112       8.41685354       1.35544081       0.00000272      -0.00000633       0.00000264
I       24.91897142       7.04675281       1.32542885      -0.00000515      -0.00000331       0.00002122
I       11.07825509      16.88076256       3.79816223      -0.00000021      -0.00001298       0.00001125
I       20.00757846      12.30142698       1.35158360      -0.00000567      -0.00002409       0.00003431
I       15.98964836      11.62607527       3.77200463      -0.00000493       0.00000311      -0.00001683
I       12.86999583       9.88307966       1.37628984       0.00000478      -0.00000284      -0.00000711
I       23.12721188      14.04443176       3.74737029       0.00004998       0.00002069      -0.00001045
I       14.16968863      15.11538937       1.37651259      -0.00003406       0.00002036      -0.00000227
I       21.82754001       8.81209393       3.74711752       0.00000404       0.00000129      -0.00000627
Cs      14.91716758       7.60071050       8.58698587       0.00001199      -0.00000114       0.00000429
Cs      21.10835362      16.32073085       6.16353596      -0.00000225      -0.00000280      -0.00000542
Cs      12.14772255      12.84780330       8.60194218       0.00001250      -0.00000003       0.00001272
Cs      23.87778064      11.07362250       6.14856843      -0.00001030       0.00000724      -0.00000588
Cs      14.93132113       7.59765106      13.40042561       0.00000206       0.00001049      -0.00001215
Cs      21.12251326      16.31770317      10.97697368      -0.00000223       0.00000052      -0.00000918
Cs      12.16190730      12.84478383      13.41540727       0.00000300      -0.00000421      -0.00001091
Cs      23.89192584      11.07060074      10.96199944      -0.00000805       0.00000400      -0.00000154
Pb      10.13093826       8.44233829       6.19946823      -0.00001752       0.00001538      -0.00000164
Pb      25.89461584      15.47908639       8.55104288      -0.00005103      -0.00001558      -0.00000087
Pb      16.92602712      13.65403168       6.17732254       0.00003573      -0.00002778       0.00000251
Pb      19.09947709      10.26739620       8.57315464       0.00002754       0.00002766       0.00000290
Pb      10.14507355       8.43932015      11.01290275       0.00000570       0.00000967      -0.00000113
Pb      25.90874501      15.47609605      13.36448325      -0.00004832      -0.00003166      -0.00000574
Pb      16.94013865      13.65094892      10.99074306       0.00005101      -0.00000653       0.00000641
Pb      19.11369224      10.26442621      13.38659728      -0.00001853       0.00000610       0.00001410
I        9.02203042      10.30463253       8.61117908       0.00002036      -0.00000551      -0.00001323
I        9.09536191      13.68328874       6.20822943       0.00000379       0.00000429       0.00001551
I       18.06359527      15.50764525       8.58166617      -0.00001325      -0.00001596      -0.00000839
I       17.96194247       8.41378572       6.16880666      -0.00001193       0.00001577       0.00000749
I       24.93312131       7.04372387       6.13892405       0.00001012      -0.00000740      -0.00000665
I       11.09240755      16.87772798       8.61161301       0.00000933      -0.00000838      -0.00000250
I       20.02174481      12.29839164       6.16511402      -0.00001427      -0.00001077      -0.00001317
I       16.00376771      11.62304082       8.58537582       0.00000346       0.00000347      -0.00000111
I       12.88416095       9.88003551       6.18971580      -0.00001597      -0.00000489      -0.00000213
I       23.14137642      14.04139173       8.56079924       0.00004328       0.00002555      -0.00000183
I       14.18386222      15.11237708       6.18997961      -0.00004257       0.00001790      -0.00001337
I       21.84165742       8.80905906       8.56054919       0.00001130      -0.00000337       0.00000682
I        9.03619217      10.30158979      13.42462264       0.00000057      -0.00000190      -0.00000277
I        9.10952306      13.68026177      11.02171777      -0.00000448       0.00000129       0.00000144
I       18.07775499      15.50457486      13.39503959      -0.00000247       0.00000264       0.00001899
I       17.97606443       8.41079100      10.98231744       0.00000272      -0.00000633       0.00000263
I       24.94727473       7.04069027      10.95230548      -0.00000516      -0.00000332       0.00002122
I       11.10655840      16.87470002      13.42503886      -0.00000022      -0.00001299       0.00001124
I       20.03588177      12.29536444      10.97846023      -0.00000568      -0.00002410       0.00003431
I       16.01795167      11.62001273      13.39888126      -0.00000494       0.00000310      -0.00001684
I       12.89829914       9.87701712      11.00316647       0.00000477      -0.00000285      -0.00000711
I       23.15551519      14.03836922      13.37424692       0.00004997       0.00002069      -0.00001045
I       14.19799194      15.10932683      11.00338922      -0.00003407       0.00002036      -0.00000227
I       21.85584332       8.80603139      13.37399415       0.00000403       0.00000128      -0.00000627
Cs      14.98650653      18.06813503      18.22343843       0.00001198      -0.00000114       0.00000430
Cs      21.09562129       5.84118122      15.78083666      -0.00000226      -0.00000280      -0.00000543
Cs      12.13499022       2.36825367      18.21924288       0.00001250      -0.00000003       0.00001271
Cs      23.86504831       0.59407287      15.76586913      -0.00001030       0.00000725      -0.00000589
Cs      14.94405346      18.07720068       3.78312492       0.00000206       0.00001049      -0.00001217
Cs      21.05317431       5.85027864       1.34052112      -0.00000223       0.00000051      -0.00000917
Cs      12.09256835       2.37735930       3.77895471       0.00000300      -0.00000421      -0.00001092
Cs      23.82258689       0.60317621       1.32554688      -0.00000805       0.00000399      -0.00000153
Pb      10.20027721      18.90976282      15.83592079      -0.00001753       0.00001538      -0.00000163
Pb      25.88188351       4.99953676      18.16834358      -0.00005103      -0.00001557      -0.00000087
Pb      16.91329479       3.17448205      15.79462324       0.00003573      -0.00002776       0.00000251
Pb      19.16881604      20.73482073      18.20960720       0.00002753       0.00002766       0.00000292
Pb      10.15780588      18.91886977       1.39560206       0.00000571       0.00000968      -0.00000116
Pb      25.83940606       5.00867152       3.72803069      -0.00004832      -0.00003168      -0.00000573
Pb      16.87079970       3.18352439       1.35429050       0.00005102      -0.00000654       0.00000642
Pb      19.12642457      20.74397583       3.76929659      -0.00001853       0.00000612       0.00001407
I        9.09136937      20.77205706      18.24763164       0.00002035      -0.00000551      -0.00001323
I        9.08262958       3.20373911      15.82553013       0.00000378       0.00000430       0.00001551
I       18.05086294       5.02809562      18.19896687      -0.00001325      -0.00001595      -0.00000840
I       18.03128142      18.88121025      15.80525922      -0.00001193       0.00001578       0.00000749
I       25.00246026      17.51114840      15.77537661       0.00001012      -0.00000740      -0.00000664
I       11.07967522       6.39817835      18.22891371       0.00000932      -0.00000838      -0.00000251
I       20.00901248       1.81884201      15.78241472      -0.00001427      -0.00001076      -0.00001317
I       15.99103538       1.14349119      18.20267652       0.00000346       0.00000347      -0.00000112
I       12.95349990      20.34746004      15.82616836      -0.00001597      -0.00000489      -0.00000213
I       23.12864409       3.56184210      18.17809994       0.00004328       0.00002556      -0.00000184
I       14.17112989       4.63282745      15.80728031      -0.00004257       0.00001791      -0.00001337
I       21.91099637      19.27648359      18.19700175       0.00001130      -0.00000337       0.00000682
I        9.04892450      20.78113941       3.80732195       0.00000056      -0.00000189      -0.00000279
I        9.04018411       3.21283724       1.38526521      -0.00000448       0.00000128       0.00000144
I       18.00841604       5.03715033       3.75858703      -0.00000247       0.00000263       0.00001899
I       17.98879676      18.89034062       1.36501675       0.00000272      -0.00000632       0.00000263
I       24.96000706      17.52023989       1.33500479      -0.00000515      -0.00000331       0.00002120
I       11.03721945       6.40727549       3.78858630      -0.00000022      -0.00001300       0.00001125
I       19.96654282       1.82793991       1.34200767      -0.00000568      -0.00002411       0.00003431
I       15.94861272       1.15258820       3.76242870      -0.00000493       0.00000310      -0.00001683
I       12.91103147      20.35656674       1.38586578       0.00000477      -0.00000285      -0.00000711
I       23.08617624       3.57094469       3.73779436       0.00004998       0.00002069      -0.00001045
I       14.12865299       4.64190230       1.36693666      -0.00003407       0.00002036      -0.00000227
I       21.86857565      19.28558101       3.75669346       0.00000403       0.00000129      -0.00000628