768
Lattice="31.631825064710778 0.4051309343230549 -0.32349711644786056 0.3104028160231228 30.326107049847437 -0.47717539225349825 -0.3476888027449404 0.24651636057680779 17.459090083420115" Properties=species:S:1:pos:R:3:forces:R:3 energy=-3660.5855192065683 stress="0.002555300055532643 0.00031452579100577 -0.0006794522177563287 0.00031452579100577 0.002054673541939526 -8.044815707952982e-06 -0.0006794522177563287 -8.044815707952982e-06 0.003382232809597752" free_energy=-3660.5855192065683 pbc="T T T"
H        1.65767037       3.45394837       8.76559911      -0.00000262       0.00003258       0.00001107
H        0.46514302       1.55232437       8.18523678      -0.00003135       0.00001240       0.00002270
H        1.66430069       0.99769722       7.03755639      -0.00000040      -0.00000910       0.00000396
H        3.71526057       2.52962204       6.79608028       0.00006500      -0.00001062      -0.00003424
H        3.67937666       3.94724093       7.81877412      -0.00001286      -0.00002558      -0.00003830
H        7.45735278       4.26723195       4.37968808       0.00000675      -0.00003643       0.00000319
H        8.56926377       6.10921956       3.53923180       0.00001560      -0.00001338       0.00001873
H        7.29669517       6.53882419       2.42087160      -0.00002814      -0.00000072      -0.00000970
H        5.24816685       4.97003065       2.48444802       0.00004384       0.00001148      -0.00000030
H        5.38545600       3.65505689       3.63657050      -0.00000753       0.00002976      -0.00003455
C        2.06064502       2.77382881       8.01219381      -0.00001664      -0.00003716      -0.00004702
C        6.98761888       4.86334233       3.59478518      -0.00006310      -0.00001771      -0.00003188
N        1.35259414       1.71162048       7.70667269       0.00005608       0.00002847      -0.00000770
N        3.22409949       3.09525787       7.49181258      -0.00005043       0.00002111       0.00005646
N        7.65859415       5.89159579       3.12982480       0.00003980       0.00000895       0.00000468
N        5.79314975       4.48383447       3.20210010       0.00003544      -0.00001995       0.00002952
Pb       4.42950908      30.29853931       2.77268190      -0.00000914       0.00004823       0.00000067
Pb       0.46308196      30.31444721       2.86649363       0.00004343      -0.00000165      -0.00001150
I        5.95951111       1.48493695       5.39231774       0.00000306       0.00000682       0.00000180
I        2.87567726       6.40925790       5.20392753      -0.00000714       0.00000946       0.00005348
I        5.98298013       1.35077891       9.67671587       0.00000676      -0.00000493       0.00002682
I        3.11208934       6.17563298       9.64865042       0.00002275      -0.00000767      -0.00000728
I        6.89533800       5.11370892       7.48457522      -0.00000525      -0.00000548      -0.00000764
I        2.16148749       2.52927945       3.20980182      -0.00003249      -0.00003553      -0.00000330
H        3.35262117      11.01564259       2.00034306       0.00000954       0.00004078      -0.00001615
H        1.29037376      11.35240465       2.96865014       0.00005697      -0.00000506      -0.00002964
H        1.37329358       9.93115419       3.96929742      -0.00002485      -0.00001016       0.00000238
H        3.50394816       8.55109170       3.71077586      -0.00003056       0.00002718       0.00004951
H        4.66891602       9.17998238       2.56290857       0.00000943       0.00003219      -0.00001349
H        5.71989619      11.81269922       6.29090207       0.00002299       0.00001638       0.00002430
H        4.52666843      13.65569834       7.02476385      -0.00001433       0.00000610      -0.00001824
H        5.78578771      14.20438410       8.10881193       0.00001836      -0.00002021       0.00000184
H        7.90110873      12.73988913       8.12205424      -0.00003178       0.00002572       0.00001075
H       15.74025408      11.45773531       6.97694759      -0.00000486      -0.00000325      -0.00002676
C        2.99916017      10.30129032       2.74797196      -0.00004245      -0.00006263       0.00005670
C        6.16291209      12.48001531       7.03360694       0.00002267      -0.00000950       0.00001364
N        1.81836323      10.53672304       3.27612964       0.00003907       0.00004812      -0.00004189
N        3.77494396       9.28534008       3.04565624      -0.00003704      -0.00001531       0.00001122
N        5.44629905      13.50027740       7.44345378       0.00001174       0.00001800      -0.00000639
N        7.37693026      12.18452535       7.43979018       0.00000154       0.00003757      -0.00003764
Pb       4.93856373       7.67792431       7.46028544      -0.00001114      -0.00003412      -0.00000946
Pb       0.97888737       7.56396135       7.55704807      -0.00000478       0.00001796      -0.00000280
I        6.81807957       8.93812404       9.73345545      -0.00000815       0.00000379       0.00001912
I        1.99842114      13.77938002       9.68827005      -0.00002430      -0.00002100      -0.00000557
I        7.00245598       9.07167097       5.31007065       0.00000286       0.00002118      -0.00002340
I        2.39126120      13.96031791       5.36893646      -0.00000709       0.00000143       0.00002254
I        6.32559179      12.62608448       3.07542039       0.00000648       0.00001878       0.00000091
I        2.88591839      10.17967719       7.53220586       0.00000911      -0.00000448       0.00000821
H        9.56569814       3.55546810       8.68455378       0.00001707       0.00001650       0.00000392
H       11.58733544       4.04861321       7.73751080       0.00004563      -0.00000195      -0.00001561
H       11.62318127       2.63081732       6.71507029       0.00001391       0.00004043      -0.00000538
H        9.57224739       1.09892581       6.95692823      -0.00002153      -0.00001684      -0.00000907
H        8.37315643       1.65372866       8.10460487      -0.00000815      -0.00003675      -0.00002593
H       15.36510614       4.36820801       4.29867744      -0.00001021       0.00001952       0.00000101
H       16.47721634       6.21035090       3.45876879       0.00003278       0.00002316      -0.00001106
H       15.20483017       6.64019822       2.34028177      -0.00003085      -0.00002931      -0.00000197
H       13.15627942       5.07147682       2.40319060      -0.00000669      -0.00002546       0.00002250
H       13.29328863       3.75628040       3.55507165      -0.00000844      -0.00000724       0.00003124
C        9.96863429       2.87521687       7.93124565      -0.00001589      -0.00003642      -0.00000075
C       14.89552649       4.96449917       3.51381807      -0.00003567      -0.00000118      -0.00001819
N       11.13204992       3.19656949       7.41073125      -0.00000565      -0.00003923       0.00002388
N        9.26058185       1.81294295       7.62596251       0.00000090       0.00000034      -0.00001090
N       15.56659888       5.99283391       3.04918193       0.00004978      -0.00002575       0.00000164
N       13.70111796       4.58510723       3.12083602      -0.00000554      -0.00001132      -0.00000046
Pb      12.33742678      30.39974863       2.69169263      -0.00002955      -0.00001480      -0.00000441
Pb       8.37098486      30.41575466       2.78564087       0.00002089      -0.00001316       0.00001856
I       13.86741948       1.58617199       5.31127399      -0.00000850       0.00002308       0.00001353
I       10.78358499       6.51041104       5.12315189      -0.00000235       0.00001133      -0.00003890
I       13.89093910       1.45188190       9.59572703       0.00000433       0.00001447       0.00001031
I       11.01992925       6.27691314       9.56780691      -0.00001785       0.00001105      -0.00001427
I       14.80330753       5.21488387       7.40363941      -0.00000998       0.00001044       0.00001432
I       10.06949538       2.63049728       3.12878595      -0.00000137      -0.00000341      -0.00000516
H       11.26109889      11.11680055       1.91938827      -0.00003194      -0.00002298       0.00001211
H        9.19876217      11.45406146       2.88715574      -0.00003085       0.00002174       0.00001013
H        9.28111329      10.03288476       3.88799859       0.00002774       0.00000354      -0.00003946
H       11.41167145       8.65239682       3.63009898       0.00000645      -0.00004395       0.00004703
H       12.57694381       9.28099801       2.48238356       0.00003210      -0.00000182       0.00001073
H       13.62844770      11.91383669       6.20997065      -0.00002179      -0.00003522       0.00000158
H       12.43470565      13.75670908       6.94343247      -0.00001557       0.00002391       0.00003143
H       13.69350653      14.30564052       8.02774901      -0.00001694       0.00001055      -0.00001805
H       15.80903016      12.84158213       8.04159143       0.00000684      -0.00002116      -0.00000255
H        7.83177130      11.35613490       7.05728665      -0.00001918      -0.00000935      -0.00001347
C       10.90734506      10.40258165       2.66700660      -0.00000105      -0.00000800       0.00001631
C       14.07114856      12.58128377       6.95274501       0.00000608       0.00000594      -0.00001589
N        9.72647090      10.63828530       3.19486639       0.00001043       0.00002970      -0.00001800
N       11.68289876       9.38653436       2.96495341      -0.00004024      -0.00000083       0.00000259
N       13.35426100      13.60144676       7.36235583       0.00007340      -0.00000114       0.00000008
N       15.28512261      12.28605373       7.35925152      -0.00002737      -0.00002517      -0.00000384
Pb      12.84648742       7.77911727       7.37946370       0.00003606      -0.00000554      -0.00002261
Pb       8.88686415       7.66534194       7.47614786       0.00000971       0.00000200       0.00001075
I       14.72607400       9.03924538       9.65266917      -0.00002961      -0.00000525      -0.00001064
I        9.90614716      13.88052706       9.60736638       0.00000033       0.00001492       0.00000642
I       14.91031685       9.17288815       5.22930035       0.00000687       0.00002535       0.00002461
I       10.29921952      14.06165544       5.28806474      -0.00000558      -0.00000059       0.00001533
I       14.23365195      12.72730185       2.99450223       0.00000380       0.00001048      -0.00000428
I       10.79400337      10.28094360       7.45130317       0.00001234       0.00001251      -0.00000858
H        1.48382597       3.57720655      17.49514415      -0.00000257       0.00003251       0.00001098
H        0.29129862       1.67558255      16.91478182      -0.00003135       0.00001240       0.00002270
H        1.49045629       1.12095540      15.76710143      -0.00000039      -0.00000910       0.00000396
H        3.54141617       2.65288022      15.52562532       0.00006500      -0.00001062      -0.00003424
H        3.50553226       4.07049911      16.54831916      -0.00001286      -0.00002558      -0.00003830
H        7.28350838       4.39049013      13.10923312       0.00000675      -0.00003643       0.00000319
H        8.39541937       6.23247774      12.26877684       0.00001560      -0.00001338       0.00001873
H        7.12285077       6.66208237      11.15041664      -0.00002814      -0.00000072      -0.00000970
H        5.07432245       5.09328883      11.21399306       0.00004384       0.00001148      -0.00000030
H        5.21161160       3.77831507      12.36611554      -0.00000753       0.00002975      -0.00003455
C        1.88680062       2.89708699      16.74173885      -0.00001670      -0.00003710      -0.00004693
C        6.81377448       4.98660051      12.32433022      -0.00006310      -0.00001771      -0.00003188
N        1.17874974       1.83487866      16.43621773       0.00005607       0.00002848      -0.00000769
N        3.05025509       3.21851605      16.22135762      -0.00005044       0.00002112       0.00005646
N        7.48474975       6.01485397      11.85936984       0.00003980       0.00000895       0.00000468
N        5.61930535       4.60709265      11.93164514       0.00003544      -0.00001995       0.00002952
Pb       4.25566467      30.42179749      11.50222694      -0.00000913       0.00004824       0.00000068
Pb       0.28923755      30.43770539      11.59603867       0.00004345      -0.00000165      -0.00001149
I        5.78566671       1.60819513      14.12186278       0.00000306       0.00000682       0.00000180
I        2.70183286       6.53251608      13.93347257      -0.00000714       0.00000946       0.00005348
I        6.15682453       1.22752073       0.94717083       0.00000677      -0.00000493       0.00002683
I        3.28593374       6.05237480       0.91910538       0.00002275      -0.00000767      -0.00000729
I        6.72149360       5.23696710      16.21412026      -0.00000525      -0.00000547      -0.00000764
I        1.98764309       2.65253763      11.93934686      -0.00003250      -0.00003553      -0.00000330
H        3.17877677      11.13890077      10.72988810       0.00000954       0.00004078      -0.00001615
H        1.11652936      11.47566283      11.69819518       0.00005697      -0.00000506      -0.00002964
H        1.19944918      10.05441237      12.69884246      -0.00002485      -0.00001016       0.00000238
H        3.33010376       8.67434988      12.44032090      -0.00003056       0.00002718       0.00004951
H        4.49507162       9.30324056      11.29245361       0.00000942       0.00003219      -0.00001349
H        5.54605179      11.93595740      15.02044711       0.00002299       0.00001638       0.00002430
H        4.35282403      13.77895652      15.75430889      -0.00001433       0.00000610      -0.00001824
H        5.61194331      14.32764228      16.83835697       0.00001836      -0.00002021       0.00000184
H        7.72726433      12.86314731      16.85159928      -0.00003179       0.00002572       0.00001075
H       15.56640968      11.58099349      15.70649263      -0.00000486      -0.00000325      -0.00002676
C        2.82531577      10.42454850      11.47751700      -0.00004245      -0.00006263       0.00005670
C        5.98906769      12.60327349      15.76315198       0.00002267      -0.00000950       0.00001364
N        1.64451883      10.65998122      12.00567468       0.00003907       0.00004811      -0.00004189
N        3.60109956       9.40859826      11.77520128      -0.00003704      -0.00001532       0.00001122
N        5.27245465      13.62353558      16.17299882       0.00001174       0.00001800      -0.00000639
N        7.20308586      12.30778353      16.16933522       0.00000154       0.00003757      -0.00003764
Pb       4.76471933       7.80118249      16.18983048      -0.00001114      -0.00003413      -0.00000945
Pb       0.80504297       7.68721953      16.28659311      -0.00000478       0.00001796      -0.00000279
I        6.99192397       8.81486586       1.00391041      -0.00000815       0.00000379       0.00001911
I        2.17226554      13.65612184       0.95872501      -0.00002430      -0.00002102      -0.00000560
I        6.82861158       9.19492915      14.03961569       0.00000286       0.00002118      -0.00002340
I        2.21741680      14.08357609      14.09848150      -0.00000708       0.00000143       0.00002256
I        6.15174739      12.74934266      11.80496543       0.00000648       0.00001881       0.00000091
I        2.71207399      10.30293537      16.26175090       0.00000911      -0.00000448       0.00000821
H        9.39185374       3.67872628      17.41409882       0.00001713       0.00001643       0.00000384
H       11.41349104       4.17187139      16.46705584       0.00004563      -0.00000195      -0.00001561
H       11.44933687       2.75407550      15.44461533       0.00001392       0.00004043      -0.00000538
H        9.39840299       1.22218399      15.68647327      -0.00002152      -0.00001685      -0.00000908
H        8.19931203       1.77698684      16.83414991      -0.00000815      -0.00003675      -0.00002594
H       15.19126174       4.49146619      13.02822248      -0.00001021       0.00001952       0.00000101
H       16.30337194       6.33360908      12.18831383       0.00003278       0.00002316      -0.00001106
H       15.03098577       6.76345640      11.06982681      -0.00003085      -0.00002931      -0.00000197
H       12.98243502       5.19473500      11.13273564      -0.00000669      -0.00002546       0.00002250
H       13.11944423       3.87953858      12.28461669      -0.00000844      -0.00000724       0.00003124
C        9.79478989       2.99847505      16.66079069      -0.00001595      -0.00003636      -0.00000067
C       14.72168209       5.08775735      12.24336311      -0.00003568      -0.00000118      -0.00001819
N       10.95820552       3.31982767      16.14027629      -0.00000565      -0.00003922       0.00002389
N        9.08673745       1.93620113      16.35550755       0.00000089       0.00000035      -0.00001090
N       15.39275448       6.11609209      11.77872697       0.00004978      -0.00002575       0.00000164
N       13.52727356       4.70836541      11.85038106      -0.00000554      -0.00001132      -0.00000046
Pb      12.16358237      30.52300681      11.42123767      -0.00002953      -0.00001479      -0.00000440
Pb       8.19714045      30.53901284      11.51518591       0.00002091      -0.00001315       0.00001856
I       13.69357508       1.70943017      14.04081903      -0.00000851       0.00002309       0.00001353
I       10.60974059       6.63366922      13.85269693      -0.00000235       0.00001133      -0.00003890
I       14.06478350       1.32862372       0.86618199       0.00000434       0.00001448       0.00001031
I       11.19377365       6.15365496       0.83826187      -0.00001784       0.00001105      -0.00001428
I       14.62946313       5.33814205      16.13318445      -0.00000998       0.00001044       0.00001432
I        9.89565098       2.75375546      11.85833099      -0.00000137      -0.00000340      -0.00000516
H       11.08725449      11.24005873      10.64893331      -0.00003194      -0.00002298       0.00001211
H        9.02491777      11.57731964      11.61670078      -0.00003085       0.00002175       0.00001013
H        9.10726889      10.15614294      12.61754363       0.00002774       0.00000354      -0.00003946
H       11.23782705       8.77565500      12.35964402       0.00000645      -0.00004394       0.00004703
H       12.40309941       9.40425619      11.21192860       0.00003210      -0.00000182       0.00001073
H       13.45460330      12.03709487      14.93951569      -0.00002179      -0.00003522       0.00000158
H       12.26086125      13.87996726      15.67297751      -0.00001557       0.00002391       0.00003143
H       13.51966213      14.42889870      16.75729405      -0.00001694       0.00001055      -0.00001805
H       15.63518576      12.96484031      16.77113647       0.00000684      -0.00002116      -0.00000254
H        7.65792690      11.47939308      15.78683169      -0.00001917      -0.00000935      -0.00001347
C       10.73350066      10.52583983      11.39655164      -0.00000105      -0.00000800       0.00001631
C       13.89730416      12.70454195      15.68229005       0.00000608       0.00000594      -0.00001589
N        9.55262650      10.76154348      11.92441143       0.00001043       0.00002970      -0.00001800
N       11.50905436       9.50979254      11.69449845      -0.00004024      -0.00000083       0.00000259
N       13.18041660      13.72470494      16.09190087       0.00007340      -0.00000114       0.00000008
N       15.11127821      12.40931191      16.08879656      -0.00002737      -0.00002517      -0.00000384
Pb      12.67264302       7.90237545      16.10900874       0.00003606      -0.00000555      -0.00002260
Pb       8.71301975       7.78860012      16.20569290       0.00000971       0.00000200       0.00001075
I       14.89991840       8.91598720       0.92312413      -0.00002961      -0.00000525      -0.00001065
I       10.07999156      13.75726888       0.87782134       0.00000033       0.00001490       0.00000638
I       14.73647245       9.29614633      13.95884539       0.00000687       0.00002535       0.00002461
I       10.12537512      14.18491362      14.01760978      -0.00000558      -0.00000059       0.00001534
I       14.05980755      12.85056003      11.72404727       0.00000379       0.00001050      -0.00000427
I       10.62015897      10.40420178      16.18084821       0.00001234       0.00001251      -0.00000858
H        1.81287178      18.61700189       8.52701141      -0.00000262       0.00003258       0.00001107
H        0.62034443      16.71537789       7.94664908      -0.00003135       0.00001240       0.00002270
H        1.81950210      16.16075074       6.79896869      -0.00000040      -0.00000910       0.00000396
H        3.87046198      17.69267556       6.55749258       0.00006500      -0.00001062      -0.00003424
H        3.83457807      19.11029445       7.58018642      -0.00001286      -0.00002558      -0.00003830
H        7.61255419      19.43028547       4.14110038       0.00000675      -0.00003643       0.00000319
H        8.72446518      21.27227308       3.30064410       0.00001560      -0.00001338       0.00001873
H        7.45189658      21.70187771       2.18228390      -0.00002814      -0.00000073      -0.00000970
H        5.40336826      20.13308417       2.24586032       0.00004384       0.00001148      -0.00000030
H        5.54065741      18.81811041       3.39798280      -0.00000753       0.00002975      -0.00003455
C        2.21584643      17.93688233       7.77360611      -0.00001664      -0.00003716      -0.00004701
C        7.14282029      20.02639585       3.35619748      -0.00006310      -0.00001771      -0.00003188
N        1.50779555      16.87467400       7.46808499       0.00005607       0.00002849      -0.00000769
N        3.37930090      18.25831139       7.25322488      -0.00005043       0.00002111       0.00005646
N        7.81379556      21.05464931       2.89123710       0.00003980       0.00000895       0.00000468
N        5.94835116      19.64688799       2.96351240       0.00003545      -0.00001995       0.00002952
Pb       4.27430767      15.13548578       3.01126959      -0.00000914       0.00004825       0.00000070
Pb       0.30788055      15.15139368       3.10508132       0.00004342      -0.00000163      -0.00001147
I        6.11471252      16.64799047       5.15373004       0.00000306       0.00000682       0.00000180
I        3.03087867      21.57231142       4.96533983      -0.00000714       0.00000946       0.00005348
I        6.13818154      16.51383243       9.43812817       0.00000676      -0.00000492       0.00002684
I        3.26729075      21.33868650       9.41006272       0.00002275      -0.00000767      -0.00000728
I        7.05053941      20.27676244       7.24598752      -0.00000525      -0.00000547      -0.00000764
I        2.31668890      17.69233297       2.97121412      -0.00003249      -0.00003553      -0.00000330
H        3.50782258      26.17869611       1.76175536       0.00000954       0.00004078      -0.00001615
H        1.44557517      26.51545817       2.73006244       0.00005697      -0.00000506      -0.00002964
H        1.52849499      25.09420771       3.73070972      -0.00002485      -0.00001016       0.00000238
H        3.65914957      23.71414522       3.47218816      -0.00003056       0.00002717       0.00004951
H        4.82411743      24.34303590       2.32432087       0.00000942       0.00003220      -0.00001349
H        5.87509760      26.97575274       6.05231437       0.00002299       0.00001638       0.00002430
H        4.68186984      28.81875186       6.78617615      -0.00001433       0.00000610      -0.00001823
H        5.94098912      29.36743762       7.87022423       0.00001836      -0.00002021       0.00000183
H        8.05631014      27.90294265       7.88346654      -0.00003178       0.00002572       0.00001075
H       15.89545549      26.62078883       6.73835989      -0.00000486      -0.00000325      -0.00002677
C        3.15436158      25.46434384       2.50938426      -0.00004245      -0.00006263       0.00005670
C        6.31811350      27.64306883       6.79501924       0.00002268      -0.00000950       0.00001364
N        1.97356464      25.69977656       3.03754194       0.00003907       0.00004811      -0.00004189
N        3.93014537      24.44839360       2.80706854      -0.00003704      -0.00001532       0.00001122
N        5.60150046      28.66333092       7.20486608       0.00001174       0.00001801      -0.00000638
N        7.53213167      27.34757887       7.20120248       0.00000154       0.00003757      -0.00003764
Pb       5.09376514      22.84097783       7.22169774      -0.00001114      -0.00003413      -0.00000945
Pb       1.13408878      22.72701487       7.31846037      -0.00000477       0.00001796      -0.00000278
I        6.97328098      24.10117756       9.49486775      -0.00000815       0.00000380       0.00001913
I        2.15362255      28.94243354       9.44968235      -0.00002431      -0.00002100      -0.00000557
I        7.15765739      24.23472449       5.07148295       0.00000286       0.00002118      -0.00002340
I        2.54646261      29.12337143       5.13034876      -0.00000709       0.00000143       0.00002256
I        6.48079320      27.78913800       2.83683269       0.00000648       0.00001881       0.00000091
I        3.04111980      25.34273071       7.29361816       0.00000911      -0.00000448       0.00000821
H        9.72089955      18.71852162       8.44596608       0.00001707       0.00001650       0.00000392
H       11.74253685      19.21166673       7.49892310       0.00004563      -0.00000195      -0.00001561
H       11.77838268      17.79387084       6.47648259       0.00001391       0.00004043      -0.00000538
H        9.72744880      16.26197933       6.71834053      -0.00002152      -0.00001685      -0.00000908
H        8.52835784      16.81678218       7.86601717      -0.00000815      -0.00003675      -0.00002593
H       15.52030755      19.53126153       4.06008974      -0.00001021       0.00001952       0.00000101
H       16.63241775      21.37340442       3.22018109       0.00003278       0.00002316      -0.00001106
H       15.36003158      21.80325174       2.10169407      -0.00003085      -0.00002931      -0.00000197
H       13.31148083      20.23453034       2.16460290      -0.00000669      -0.00002546       0.00002250
H       13.44849004      18.91933392       3.31648395      -0.00000844      -0.00000724       0.00003124
C       10.12383570      18.03827039       7.69265795      -0.00001590      -0.00003642      -0.00000075
C       15.05072790      20.12755269       3.27523037      -0.00003568      -0.00000118      -0.00001818
N       11.28725133      18.35962301       7.17214355      -0.00000564      -0.00003923       0.00002388
N        9.41578326      16.97599647       7.38737481       0.00000090       0.00000035      -0.00001089
N       15.72180029      21.15588743       2.81059423       0.00004978      -0.00002575       0.00000164
N       13.85631937      19.74816075       2.88224832      -0.00000554      -0.00001132      -0.00000046
Pb      12.18222537      15.23669510       2.93028032      -0.00002955      -0.00001478      -0.00000439
Pb       8.21578345      15.25270113       3.02422856       0.00002089      -0.00001314       0.00001859
I       14.02262089      16.74922551       5.07268629      -0.00000851       0.00002309       0.00001354
I       10.93878640      21.67346456       4.88456419      -0.00000235       0.00001133      -0.00003890
I       14.04614051      16.61493542       9.35713933       0.00000433       0.00001448       0.00001032
I       11.17513066      21.43996666       9.32921921      -0.00001785       0.00001105      -0.00001427
I       14.95850894      20.37793739       7.16505171      -0.00000998       0.00001044       0.00001432
I       10.22469679      17.79355080       2.89019825      -0.00000137      -0.00000340      -0.00000516
H       11.41630030      26.27985407       1.68080057      -0.00003194      -0.00002298       0.00001211
H        9.35396358      26.61711498       2.64856804      -0.00003085       0.00002175       0.00001013
H        9.43631470      25.19593828       3.64941089       0.00002774       0.00000354      -0.00003946
H       11.56687286      23.81545034       3.39151128       0.00000645      -0.00004395       0.00004703
H       12.73214522      24.44405153       2.24379586       0.00003210      -0.00000182       0.00001073
H       13.78364911      27.07689021       5.97138295      -0.00002179      -0.00003522       0.00000158
H       12.58990706      28.91976260       6.70484477      -0.00001557       0.00002391       0.00003143
H       13.84870794      29.46869404       7.78916131      -0.00001695       0.00001054      -0.00001806
H       15.96423157      28.00463565       7.80300373       0.00000684      -0.00002116      -0.00000255
H        7.98697271      26.51918842       6.81869895      -0.00001917      -0.00000935      -0.00001347
C       11.06254647      25.56563517       2.42841890      -0.00000105      -0.00000800       0.00001631
C       14.22634997      27.74433729       6.71415731       0.00000608       0.00000594      -0.00001589
N        9.88167231      25.80133882       2.95627869       0.00001043       0.00002970      -0.00001800
N       11.83810017      24.54958788       2.72636571      -0.00004024      -0.00000083       0.00000259
N       13.50946241      28.76450028       7.12376813       0.00007340      -0.00000113       0.00000008
N       15.44032402      27.44910725       7.12066382      -0.00002737      -0.00002516      -0.00000383