96
Lattice="19.76996198315327 -0.09809456624817936 0.12646897678176316 0.14977459923999462 11.672280865108233 -0.04912249766726799 -0.02894689153183865 -0.06974285338262033 9.242376907369263" Properties=species:S:1:pos:R:3:forces:R:3 energy=-457.8699297168383 stress="0.003214504343391864 0.00018770394174887908 -0.0001948131395470216 0.00018770394174887908 0.0022583660775387674 -0.0002815952200224848 -0.0001948131395470216 -0.0002815952200224848 0.0027520408753922594" free_energy=-457.8699297168383 pbc="T T T"
H        4.20068095       3.07040870       2.76989161       0.00000367      -0.00001091       0.00000531
H        8.71121143      14.67179848       0.80130718      -0.00002803       0.00002823       0.00001949
H       -1.24809102       8.94842346       2.95102257      -0.00001198       0.00000538       0.00001659
H       14.09445510       8.80762718       0.43247887      -0.00001077      -0.00000434       0.00000929
H        2.33532366       2.33336299       8.62026033      -0.00000225      -0.00000402      -0.00001454
H        8.80580735      12.54697095       1.73801916       0.00001085      -0.00000179       0.00001674
H        0.59360716       8.20356799       6.36137593      -0.00000309       0.00000281      -0.00000072
H       14.00259078       6.70075734      -0.53807867      -0.00001679       0.00000780       0.00000554
H        2.49529254       5.41825721       2.01672807       0.00002043      -0.00000695      -0.00000766
H       10.37382279      12.19091285       1.02002580      -0.00002510       0.00001211      -0.00000955
H        1.52351870       9.64271306       6.76000901      -0.00000389      -0.00000463      -0.00000257
H       12.42115852       6.34077702       0.14717878      -0.00003200      -0.00000869       0.00000154
H        1.44197415       3.83172629       3.64240124      -0.00001032       0.00001001      -0.00000769
H       11.30321777      13.91121009      -0.48024531      -0.00003795       0.00001351       0.00002021
H        0.47810899      11.25894147       3.76961430      -0.00000208      -0.00000432       0.00001518
H       11.48038613       8.04488489       1.66871914       0.00000776      -0.00001804       0.00000348
H        2.34985247       2.36814259       3.99909447      -0.00000977       0.00001063      -0.00000765
H       10.42105530      15.43280832      -0.60446775      -0.00000502      -0.00001280       0.00001895
H       -1.20447217      10.92742604       4.16127327      -0.00002136      -0.00000095       0.00001852
H       13.98809759       6.66585506       4.08293852       0.00000005       0.00001792       0.00001581
C        3.30351179       3.69828899       2.79898138      -0.00001618      -0.00001597       0.00002901
C        9.57014129      14.02578321       0.59258340       0.00003624      -0.00000868      -0.00000679
C       -0.34179455       9.56371627       2.94604950       0.00002800      -0.00001897      -0.00002195
C       13.22876264       8.16380828       0.61992039       0.00000634       0.00001231       0.00000211
N        3.32174913       4.82272280       2.11763590      -0.00000368       0.00004245      -0.00004589
N        9.59679654      12.83810654       1.15707026       0.00002347      -0.00002189       0.00000480
N        0.66364375       9.09844798       6.86169254      -0.00001158       0.00000455       0.00001915
N       13.20466475       6.98512177       0.03740900       0.00004294       0.00000378      -0.00002263
N        2.28889273       3.27168422       3.51386399       0.00002215      -0.00001219      -0.00000999
N       10.50137517      14.49040019      -0.20636651       0.00001245      -0.00000683      -0.00004508
N       -0.35540866      10.67690686       3.64472808       0.00002138       0.00002066      -0.00002089
N       12.28826053       8.62256980       1.41155557      -0.00001080       0.00004500       0.00000635
Pb      -2.41484824       4.89654548       0.52905540      -0.00000483       0.00000164      -0.00000825
Pb      15.26218089      12.86026017       3.13225706      -0.00000533       0.00000073      -0.00000363
Pb       5.39388308      10.70003819       0.58580080      -0.00000131      -0.00000523      -0.00000759
Pb       7.53551733       7.05638936       2.70580053       0.00001149       0.00000133      -0.00000775
I       -3.40385658       6.93732399       2.85098927      -0.00000678       0.00000423       0.00000162
I       -3.53628133      10.90851287       0.67595265      -0.00001756       0.00000435      -0.00000007
I        6.43805064      12.70775521       2.90701991      -0.00000414       0.00000754      -0.00000926
I        6.50341911       5.04029000       0.39291404       0.00001291       0.00000302       0.00001551
I       14.27713452       3.38261623       0.84973403       0.00000151       0.00000174      -0.00000066
I       -1.43157370      14.36992628       2.80514549       0.00000736      -0.00000535      -0.00000670
I        8.44058638       9.22304416       0.44476056      -0.00000103      -0.00000052       0.00000379
I        4.49097945       8.52933891       2.85275204       0.00000655      -0.00000229      -0.00000234
I        0.45691082       6.15230298       0.25648252      -0.00000695       0.00000060      -0.00001067
I       12.39461906      11.59582112       3.38337743       0.00000390      -0.00000464      -0.00000919
I        2.54571082      11.99464573       0.84934048      -0.00000077       0.00000234       0.00000963
I       10.37886953       5.75262192       2.46699069      -0.00000507      -0.00000308      -0.00000921
H        4.18622633       3.03557352       7.39114368      -0.00000048      -0.00000787       0.00001616
H        8.69666789      14.63682968       5.42287576      -0.00002462       0.00001602      -0.00000592
H       -1.26258438       8.91350067       7.57226761       0.00001784       0.00000349      -0.00000475
H       14.08005598       8.77269782       5.05354441      -0.00000452      -0.00000925       0.00001198
H        4.16571085       5.07215376       1.59308210      -0.00000635      -0.00000472       0.00000603
H        8.79139780      12.51189241       6.35932530       0.00001681       0.00001098      -0.00002399
H        0.60815988       8.23842365       1.74027937      -0.00000035       0.00002441      -0.00000645
H       12.36080152       9.52181981       6.44988573       0.00001651      -0.00000324       0.00001294
H        1.42743744       3.79689438       8.26339162      -0.00001158       0.00001724       0.00000692
H       10.35928957      12.15590167       5.64101965       0.00000140       0.00000584       0.00000898
H        1.53809986       9.67753114       2.13897821      -0.00002640      -0.00000759      -0.00000205
H       11.46598622       8.01002021       6.28981940       0.00000635       0.00000014      -0.00000393
H        2.48084270       5.38332145       6.63764526       0.00001946      -0.00000691       0.00001257
H       11.28848220      13.87637436       4.14086417       0.00000889      -0.00000413      -0.00001253
H        0.46361555      11.22404526       8.39078175       0.00002007       0.00001690       0.00000264
H       12.40664789       6.30592969       4.76818517      -0.00002728      -0.00002864       0.00000377
H        4.15130860       5.03722047       6.21417306      -0.00002566      -0.00001201       0.00000985
H       10.40630327      15.39798263       4.01691338       0.00000221      -0.00000825      -0.00001740
H       -1.21893337      10.89248511       8.78253605      -0.00000904       0.00000997      -0.00000005
H       12.37515255       9.55671538       1.82877937       0.00001520      -0.00002406      -0.00001010
C        3.28904205       3.66343782       7.42011813       0.00003458       0.00003176      -0.00002004
C        9.55556042      13.99083255       5.21394518       0.00005218      -0.00002001       0.00000224
C       -0.35630325       9.52881688       7.56723212      -0.00000289       0.00002274       0.00001638
C       13.21434057       8.12890811       5.24098086       0.00000322       0.00002963      -0.00000373
N        2.27438160       3.23686954       8.13496277      -0.00000550      -0.00003602       0.00001362
N        9.58230429      12.80309453       5.77829841      -0.00000135      -0.00000166       0.00000605
N        0.67819433       9.13330458       2.24059649      -0.00000782      -0.00000496      -0.00000601
N       12.27386736       8.58768887       6.03263956       0.00000237      -0.00002078      -0.00001365
N        3.30730649       4.78781303       6.73867550       0.00000747       0.00001763      -0.00000480
N       10.48666938      14.45553166       4.41489662      -0.00002137      -0.00001718       0.00004079
N       -0.36989703      10.64199766       8.26592923       0.00000965      -0.00005702      -0.00001753
N       13.19018566       6.95023974       4.65843524       0.00001649       0.00000649       0.00000649
Pb      -2.42936215       4.86165622       5.15025608       0.00001244       0.00000300      -0.00000146
Pb      15.24773386      12.82534772       7.75344878       0.00000238      -0.00000404       0.00000084
Pb       5.37945099      10.66515079       5.20698965      -0.00000249      -0.00000872      -0.00000264
Pb       7.52107756       7.02153257       7.32700965       0.00000271      -0.00000439      -0.00000556
I       -3.41838002       6.90244800       7.47218442       0.00000611       0.00000039       0.00000923
I       -3.55077765      10.87364049       5.29708848      -0.00000788       0.00001007       0.00001567
I        6.42356798      12.67288615       7.52822269       0.00000639       0.00000424       0.00000476
I        6.48903722       5.00540679       5.01412296      -0.00001404       0.00000032       0.00000041
I       14.26265656       3.34774774       5.47095500      -0.00000313      -0.00000646      -0.00000437
I       -1.44600388      14.33506175       7.42631729      -0.00000259      -0.00000446      -0.00000162
I        8.42613751       9.18814360       5.06593219      -0.00000459       0.00000618      -0.00000293
I        4.47653997       8.49446257       7.47391930      -0.00000081      -0.00000919       0.00000616
I        0.44244068       6.11738893       4.87765018      -0.00001294      -0.00000230      -0.00000315
I       12.38023174      11.56085123       8.00458227       0.00001200       0.00000262      -0.00000450
I        2.53126362      11.95971716       5.47055711      -0.00001460      -0.00000177      -0.00000254
I       10.36445512       5.71779437       7.08817356      -0.00001754      -0.00000603       0.00000755
