320
Lattice="31.776387278072196 -0.007869562818606825 -0.004662980873558358 0.02260364445487648 28.465365071340397 0.14677469429852438 0.03664626736618149 -0.07661941988814291 16.958472428750095" Properties=species:S:1:pos:R:3:forces:R:3 energy=-987.6896694666252 stress="0.000576513936066425 2.268798515483124e-05 3.3557726915490506e-05 2.268798515483124e-05 0.0019231912917944249 2.2196763547617794e-05 3.3557726915490506e-05 2.2196763547617794e-05 0.0012296860466473318" free_energy=-987.6896694666252 pbc="T T T"
Cs       7.90422523       1.88971969       2.23211140      -0.00000111       0.00001396       0.00001431
Cs      11.74963743       4.45482181       6.49686336      -0.00000500      -0.00000278      -0.00000091
Cs       7.79984746       8.94754887      14.99814318       0.00000172      -0.00000265      -0.00000110
Cs      11.88367444      11.59142027       2.28346914       0.00000759       0.00001210       0.00000023
Cs      15.84829179       1.88779936       2.23093378      -0.00000248      -0.00000009      -0.00000491
Cs      19.69384795       4.45280471       6.49571763      -0.00001538       0.00000425       0.00000273
Cs      15.74393583       8.94555141      14.99690750      -0.00000569       0.00000131       0.00000630
Cs      19.82768496      11.58945635       2.28233726       0.00001083      -0.00001744      -0.00000131
Pb      10.52493909      13.83250746       6.53709818       0.00002734      -0.00001599      -0.00001820
Pb      14.49707237      13.83999883       6.53673369       0.00000123      -0.00001900      -0.00002372
Pb       9.14019023       6.74481819       2.26526980       0.00000928       0.00000543       0.00002275
Pb       5.16805068       6.73732288       2.26565041      -0.00000635       0.00000334      -0.00002061
Pb      18.46904272      13.83054887       6.53592757       0.00001855      -0.00002816       0.00001177
Pb      22.44119068      13.83792866       6.53550520      -0.00002528      -0.00002213      -0.00000392
Pb      17.08427846       6.74274685       2.26409833       0.00000170       0.00002645      -0.00001089
Pb      13.11216139       6.73536433       2.26450367      -0.00001448       0.00000463      -0.00000790
I       12.55329673       0.94669119       0.18234816       0.00000685      -0.00001588       0.00001533
I        7.08223400       5.43622775       0.06742631      -0.00000427      -0.00000263      -0.00001127
I       12.57062181       0.92994649       4.28025949       0.00000949       0.00000161      -0.00000482
I        7.08322426       5.41477771       4.44875045       0.00001407      -0.00001053       0.00000496
I       11.03259773       4.19497133       2.25326753       0.00001470      -0.00002112      -0.00001895
I        8.62118137       2.14962957       6.47565524       0.00001265       0.00001262       0.00001672
I       11.05692638       8.04557869       4.46099533      -0.00002232       0.00000420       0.00000170
I        8.60827530      12.53161001       4.34142869      -0.00000681       0.00001076      -0.00000919
I       11.05478920       8.06558340       0.07970337       0.00001153      -0.00000065       0.00000584
I        8.59206103      12.55007437       0.24348755       0.00000946       0.00000592      -0.00002295
I       12.60255379      11.29133635       6.52260689      -0.00002038       0.00001030      -0.00000475
I        7.06256934       9.28598604       2.27969526       0.00000370       0.00001072       0.00001118
I       20.49747347       0.94452731       0.18122009      -0.00000448       0.00002642       0.00001054
I       15.02624687       5.43440086       0.06614260       0.00002196      -0.00001262       0.00000844
I       20.51470824       0.92792761       4.27911771       0.00000257       0.00000435       0.00000763
I       15.02730487       5.41256873       4.44748697      -0.00000011       0.00001056      -0.00000161
I       18.97675108       4.19292929       2.25200324      -0.00000673      -0.00002116      -0.00000978
I       16.56537135       2.14768065       6.47472504      -0.00000533       0.00002498      -0.00000467
I       19.00097226       8.04348714       4.45983879       0.00000432       0.00000043       0.00001024
I       16.55230927      12.52986380       4.34018472      -0.00000249      -0.00001022      -0.00000421
I       18.99883871       8.06361373       0.07855580       0.00001006      -0.00000954       0.00000303
I       16.53610122      12.54795220       0.24222857       0.00001281      -0.00000109      -0.00000862
I       20.54659598      11.28930908       6.52126704       0.00000133       0.00003320       0.00001856
I       15.00674603       9.28398438       2.27880287       0.00000538      -0.00000511      -0.00001694
Cs       7.92256094       1.85145823      10.71136352      -0.00000936      -0.00000885       0.00000940
Cs      11.76797168       4.41649547      14.97605765      -0.00000812       0.00001081       0.00000556
Cs       7.78155699       8.98585734       6.51892560      -0.00000021      -0.00001402      -0.00000486
Cs      11.90200796      11.55311971      10.76271415       0.00000627       0.00000419       0.00000013
Cs      15.86663995       1.84952048      10.71015474      -0.00000254       0.00000151       0.00000096
Cs      19.71212473       4.41451099      14.97494400      -0.00000491       0.00000523      -0.00001248
Cs      15.72556230       8.98385410       6.51767833       0.00002004       0.00000601       0.00000984
Cs      19.84604118      11.55114345      10.76156295       0.00001358      -0.00000375      -0.00000746
Pb      10.54327566      13.79419365      15.01633516       0.00000785      -0.00001808       0.00002869
Pb      14.51540612      13.80165228      15.01596234      -0.00000982      -0.00001905      -0.00001289
Pb       9.15857417       6.70649425      10.74447897       0.00001045       0.00002039       0.00001643
Pb       5.18643686       6.69900719      10.74490139       0.00001666       0.00000410      -0.00000055
Pb      18.48737070      13.79218068      15.01519022       0.00002901      -0.00001371       0.00000781
Pb      22.45951207      13.79962651      15.01477678       0.00000226      -0.00002792      -0.00000720
Pb      17.10266012       6.70447566      10.74332325       0.00002242       0.00002901      -0.00000390
Pb      13.13054361       6.69705967      10.74373105       0.00000005       0.00000305       0.00000971
I       12.57161470       0.90831634       8.66159099       0.00000989       0.00001475       0.00001845
I        7.10059232       5.39789212       8.54665831      -0.00001701       0.00000386      -0.00001088
I       12.58897649       0.89162568      12.75950568      -0.00000632       0.00000948      -0.00002517
I        7.10166626       5.37646840      12.92799528      -0.00002270      -0.00001487      -0.00001241
I       11.05098812       4.15664840      10.73244363       0.00001746      -0.00002202      -0.00000498
I        8.63951280       2.11131850      14.95498904       0.00000278      -0.00001734      -0.00000987
I       11.07527514       8.00726782      12.94020553       0.00000203      -0.00000847       0.00001863
I        8.62658838      12.49332794      12.82066704      -0.00001050       0.00000501      -0.00000722
I       11.07320863       8.02727901       8.55892940      -0.00002017       0.00000347       0.00000505
I        8.61039512      12.51174855       8.72271460      -0.00000404      -0.00000255      -0.00001010
I       12.62087318      11.25299948      15.00184816      -0.00000613       0.00001021      -0.00000392
I        7.08096348       9.24766495      10.75894495      -0.00001945       0.00001451      -0.00000152
I       20.51578411       0.90620308       8.66047443       0.00000039       0.00001153      -0.00001633
I       15.04466447       5.39610731       8.54537439      -0.00002093      -0.00001752       0.00000144
I       20.53305264       0.88967313      12.75836325      -0.00001430       0.00000458      -0.00001705
I       15.04570440       5.37426801      12.92671653      -0.00000531       0.00002017      -0.00000593
I       18.99513469       4.15466024      10.73113687      -0.00001954      -0.00002433       0.00001217
I       16.58367458       2.10939154      14.95400413       0.00000380      -0.00000434      -0.00000782
I       19.01937506       8.00520049      12.93906688      -0.00000100      -0.00001082       0.00000309
I       16.57066651      12.49153996      12.81940624      -0.00000624      -0.00000409       0.00000550
I       19.01722409       8.02536782       8.55779484      -0.00001581      -0.00001125      -0.00001183
I       16.55444898      12.50971084       8.72146500      -0.00000428      -0.00000265       0.00000057
I       20.56497374      11.25097697      15.00055534      -0.00002819       0.00002127       0.00000909
I       15.02509724       9.24569712      10.75802554       0.00000660      -0.00001287      -0.00002186
Cs       7.91551434      16.12245824       2.30555536      -0.00000843      -0.00000241      -0.00000295
Cs      11.76090265      18.68749819       6.57022518       0.00001171       0.00001415      -0.00000075
Cs       7.81116350      23.18020859      15.07148863      -0.00000377      -0.00001071       0.00000860
Cs      11.89501199      25.82414839       2.35690377       0.00000867      -0.00000453      -0.00000634
Cs      15.85959087      16.12049667       2.30433524       0.00000121       0.00000158       0.00000135
Cs      19.70510080      18.68551740       6.56906884      -0.00000289      -0.00000044      -0.00000006
Cs      15.75528964      23.17825915      15.07031606      -0.00001910      -0.00000017      -0.00000199
Cs      19.83899045      25.82211585       2.35571267       0.00001941      -0.00000888      -0.00000427
Pb      10.53625316      28.06517174       6.61045264      -0.00000845      -0.00000194       0.00000396
Pb      14.50839273      28.07266703       6.61009402      -0.00001776      -0.00003143      -0.00000408
Pb       9.15151010      20.97751460       2.33863012       0.00000271       0.00001066      -0.00000354
Pb       5.17937251      20.97001731       2.33902533       0.00001323       0.00001400       0.00000078
Pb      18.48036441      28.06317885       6.60933417      -0.00000766      -0.00002647      -0.00000066
Pb      22.45250095      28.07058619       6.60890166      -0.00001456      -0.00001071       0.00001625
Pb      17.09561938      20.97545210       2.33745829       0.00000265       0.00001444       0.00001542
Pb      13.12348458      20.96808684       2.33785189      -0.00002421      -0.00000447       0.00002103
I       12.56463527      15.17935731       0.25573210      -0.00002188      -0.00000572       0.00001514
I        7.09351230      19.66890157       0.14079045       0.00001469       0.00000762      -0.00000806
I       12.58190331      15.16262088       4.35365009      -0.00000657      -0.00000759       0.00000462
I        7.09457628      19.64746765       4.52212415      -0.00001653      -0.00000301      -0.00002014
I       11.04393634      18.42766989       2.32651397       0.00000356      -0.00000867       0.00000995
I        8.63244579      16.38230949       6.54904468       0.00001021       0.00000621       0.00000951
I       11.06820917      22.27823161       4.53438755      -0.00000142      -0.00000909      -0.00001398
I        8.61954131      26.76431575       4.41478802      -0.00000712       0.00001808      -0.00000223
I       11.06610331      22.29837001       0.15310854       0.00000612      -0.00002033       0.00000179
I        8.60344353      26.78267819       0.31683658      -0.00000929       0.00000228      -0.00000081
I       12.61385674      25.52400942       6.59589526       0.00000801      -0.00000427       0.00000649
I        7.07388545      23.51867925       2.35305720       0.00000419      -0.00001584       0.00001286
I       20.50874893      15.17720482       0.25464412      -0.00001332       0.00003006      -0.00001461
I       15.03758117      19.66701534       0.13957330       0.00000585       0.00000410      -0.00002327
I       20.52602109      15.16064326       4.35249615      -0.00000071       0.00000563       0.00001241
I       15.03861808      19.64537649       4.52089643      -0.00000197      -0.00000264       0.00000323
I       18.98807042      18.42562652       2.32537923       0.00000397      -0.00000918      -0.00000890
I       16.57663141      16.38040149       6.54803613       0.00000502       0.00000952       0.00000884
I       19.01230419      22.27621018       4.53320972      -0.00000532      -0.00001662      -0.00001166
I       16.56361850      26.76252180       4.41355700       0.00000962       0.00000161       0.00000634
I       19.01020075      22.29629064       0.15191881       0.00000571      -0.00000327       0.00000207
I       16.54745052      26.78063686       0.31559412       0.00000104       0.00001305      -0.00001052
I       20.55792809      25.52195845       6.59469965       0.00000901       0.00002379       0.00000536
I       15.01808756      23.51668530       2.35202506      -0.00001776       0.00001374       0.00000919
Cs       7.93389109      16.08409611      10.78477242      -0.00002271       0.00001324      -0.00000556
Cs      11.77923299      18.64925697      15.04948024       0.00000113      -0.00001427       0.00000079
Cs       7.79280424      23.21854935       6.59229811       0.00001385      -0.00000827      -0.00000345
Cs      11.91337998      25.78583438      10.83611026      -0.00002696       0.00000333      -0.00000617
Cs      15.87789104      16.08222541      10.78359519       0.00000633      -0.00001435      -0.00000833
Cs      19.72347141      18.64714542      15.04829218      -0.00000205       0.00000568       0.00001495
Cs      15.73687013      23.21652325       6.59105823       0.00001139       0.00000618       0.00000947
Cs      19.85730568      25.78374779      10.83494917       0.00001076       0.00001941      -0.00000219
Pb      10.55459543      28.02686447      15.08970948      -0.00000471       0.00000435      -0.00000335
Pb      14.52671011      28.03435284      15.08935399       0.00003197       0.00000176       0.00000468
Pb       9.16986026      20.93919438      10.81787004      -0.00000810       0.00001401      -0.00000196
Pb       5.19771982      20.93167421      10.81825448       0.00000580       0.00002080      -0.00002792
Pb      18.49868791      28.02489792      15.08855598      -0.00001215       0.00000679      -0.00000016
Pb      22.47082347      28.03229849      15.08812696       0.00002083      -0.00001351      -0.00000535
Pb      17.11394127      20.93713109      10.81672558       0.00001102       0.00000110      -0.00004165
Pb      13.14182430      20.92974924      10.81712269      -0.00002034       0.00001705      -0.00000183
I       12.58291824      15.14105858       8.73498019      -0.00000628       0.00000181       0.00001711
I        7.11189516      19.63061595       8.62000770      -0.00000503      -0.00000938       0.00000247
I       12.60023269      15.12426788      12.83287948       0.00000249       0.00001073      -0.00000299
I        7.11290119      19.60910353      13.00133670       0.00000299       0.00000435      -0.00000387
I       11.06228026      18.38934852      10.80580798      -0.00000250      -0.00001536       0.00000683
I        8.65081923      16.34401499      15.02829951       0.00000334      -0.00000096       0.00000963
I       11.08654767      22.23994730      13.01361858       0.00001277      -0.00000677       0.00000215
I        8.63789865      26.72602992      12.89401677       0.00000494       0.00001021      -0.00000371
I       11.08447859      22.26002208       8.63234358      -0.00001539      -0.00001860       0.00001104
I        8.62171800      26.74439496       8.79606308       0.00000384       0.00001053       0.00000275
I       12.63220329      25.48569569      15.07519323      -0.00000280      -0.00001023      -0.00000652
I        7.09222721      23.48035417      10.83231567       0.00000458      -0.00001664       0.00001569
I       20.52709579      15.13894464       8.73382994      -0.00000411      -0.00000124      -0.00000181
I       15.05590394      19.62872250       8.61880448       0.00000994       0.00000604      -0.00000262
I       20.54432966      15.12233887      12.83176337      -0.00001369       0.00000099       0.00000021
I       15.05696515      19.60698440      13.00013529       0.00000425       0.00000783       0.00001582
I       19.00640225      18.38730969      10.80449405       0.00000074      -0.00000771       0.00002640
I       16.59498293      16.34204584      15.02735988      -0.00000122       0.00001635      -0.00001131
I       19.03068570      22.23780962      13.01245883       0.00000145       0.00001281      -0.00000100
I       16.58194552      26.72427960      12.89276613      -0.00000360      -0.00001336       0.00001906
I       19.02848112      22.25801481       8.63117291      -0.00000820      -0.00000789      -0.00000534
I       16.56572898      26.74233979       8.79483604       0.00000964      -0.00000400      -0.00000227
I       20.57623701      25.48367863      15.07388158       0.00000187      -0.00002688       0.00001108
I       15.03641624      23.47836630      10.83136429       0.00000331       0.00000199       0.00000200
Cs      23.79238390       1.88585029       2.22983514       0.00001016      -0.00000747      -0.00001614
Cs      27.63781490       4.45089142       6.49456979       0.00000747       0.00001111      -0.00000871
Cs      23.68803730       8.94357908      14.99580237      -0.00000719       0.00000572       0.00000318
Cs      27.77189553      11.58751422       2.28107462      -0.00000329       0.00000280       0.00000691
Cs      -0.03989760       1.89172198       2.23321568      -0.00000249       0.00000838       0.00001087
Cs       3.80561997       4.45680527       6.49802999      -0.00001042      -0.00001548      -0.00000020
Cs      31.63210213       8.94161828      14.99460191       0.00000372       0.00000097       0.00000412
Cs       3.93947986      11.59333961       2.28460806       0.00000403       0.00000427       0.00000078
Pb      26.41315201      13.82852828       6.53470630       0.00000214      -0.00001198      -0.00000349
Pb      30.38528546      13.83599406       6.53437854       0.00000479      -0.00000004       0.00000051
Pb      25.02836677       6.74087640       2.26293114       0.00001074       0.00002149      -0.00000503
Pb      21.05624096       6.73338622       2.26330836       0.00001101       0.00002355      -0.00001373
Pb       2.58085500      13.83437594       6.53830198      -0.00001948       0.00002459      -0.00000530
Pb       6.55297372      13.84182642       6.53787879       0.00001057      -0.00000627      -0.00000046
Pb       1.19606360       6.74667047       2.26640680       0.00003141       0.00002797       0.00002604
Pb      29.00032871       6.73146897       2.26219006       0.00002611       0.00000763      -0.00001956
I       28.44149301       0.94272611       0.17998352       0.00000264       0.00001445       0.00003081
I       22.97038834       5.43218308       0.06511938       0.00002362       0.00003369       0.00000202
I       28.45882385       0.92600257       4.27789059       0.00001090      -0.00001354       0.00001422
I       22.97143487       5.41090584       4.44644751      -0.00001759      -0.00003174       0.00001328
I       26.92081629       4.19104424       2.25091280      -0.00000645      -0.00001152       0.00000079
I       24.50936455       2.14570972       6.47328739      -0.00000010       0.00000599       0.00002102
I       26.94505185       8.04169015       4.45864415      -0.00000327      -0.00001036       0.00000452
I       24.49644984      12.52765321       4.33904523       0.00000807       0.00002045      -0.00000375
I       26.94296449       8.06165277       0.07736385       0.00001997       0.00000131       0.00000692
I       24.48028321      12.54609840       0.24108172      -0.00000032       0.00000936      -0.00000415
I       28.49075024      11.28734293       6.52031714       0.00000610       0.00001260      -0.00000854
I       22.95075545       9.28205096       2.27728898       0.00000727      -0.00001712       0.00000599
I        4.60926062       0.94854632       0.18354770      -0.00000043       0.00000311       0.00000520
I       30.91439478       5.43038474       0.06387300       0.00002125      -0.00000714       0.00000982
I        4.62654187       0.93187556       4.28145985       0.00000364      -0.00001939      -0.00000058
I       30.91547814       5.40875995       4.44522337      -0.00001142      -0.00000174      -0.00000771
I        3.08855123       4.19686338       2.25439516      -0.00000822       0.00000058      -0.00000513
I        0.67716947       2.15166464       6.47700028      -0.00001214       0.00000640      -0.00000360
I        3.11276635       8.04748932       4.46212350      -0.00000367       0.00000005       0.00000117
I        0.66414384      12.53373517       4.34251478      -0.00000762      -0.00001438       0.00001269
I        3.11063672       8.06744217       0.08083356       0.00001170       0.00000791       0.00000705
I        0.64789311      12.55201116       0.24457288       0.00000367      -0.00000330      -0.00000724
I        4.65843592      11.29317894       6.52379718      -0.00000294       0.00000429      -0.00000202
I       30.89496115       9.28007208       2.27631544      -0.00002295      -0.00002526      -0.00000033
Cs      23.81074917       1.84752963      10.70902904      -0.00000880      -0.00000874       0.00000381
Cs      27.65611172       4.41259500      14.97378300       0.00001323      -0.00000003      -0.00001125
Cs      23.66970730       8.98195926       6.51660818       0.00001003      -0.00001705       0.00000351
Cs      27.79024457      11.54920857      10.76030674      -0.00001243      -0.00000544       0.00001739
Cs      -0.02153234       1.85339684      10.71249210       0.00000064       0.00000965       0.00000764
Cs       3.82400197       4.41838351      14.97723993      -0.00001726       0.00000598       0.00000329
Cs      31.61378503       8.97988420       6.51540648       0.00000807       0.00000664      -0.00000355
Cs       3.95785299      11.55507457      10.76393096       0.00001338      -0.00001581      -0.00001496
Pb      26.43147651      13.79027832      15.01395808      -0.00004836      -0.00001655       0.00001035
Pb      30.40358342      13.79777878      15.01359401       0.00004730      -0.00003003      -0.00000394
Pb      25.04677311       6.70258032      10.74221327      -0.00000928       0.00000376      -0.00000057
Pb      21.07463078       6.69510957      10.74251201       0.00000911       0.00001407       0.00003182
Pb       2.59918549      13.79617218      15.01751603      -0.00001520      -0.00001378       0.00000067
Pb       6.57130617      13.80357111      15.01713878       0.00001354      -0.00001118       0.00000773
Pb       1.21447375       6.70837013      10.74572260      -0.00000715       0.00002298      -0.00000873
Pb      29.01874142       6.69310021      10.74145963      -0.00001055       0.00002104      -0.00000024
I       28.45983568       0.90450212       8.65922754       0.00000028      -0.00001353      -0.00000600
I       22.98882798       5.39395607       8.54434359       0.00000668       0.00001007      -0.00001356
I       28.47721871       0.88761454      12.75714235      -0.00003691       0.00000409      -0.00000565
I       22.98976771       5.37257727      12.92567703       0.00000328      -0.00000962      -0.00001550
I       26.93917536       4.15271184      10.73026074      -0.00001243       0.00000014      -0.00000819
I       24.52771661       2.10738191      14.95250622       0.00000275      -0.00001506       0.00001083
I       26.96348444       8.00340092      12.93790533      -0.00000903      -0.00001859      -0.00001430
I       24.51477217      12.48945962      12.81826252       0.00002806       0.00000659       0.00001206
I       26.96138560       8.02329154       8.55661840      -0.00000280      -0.00000667       0.00001192
I       24.49859259      12.50783449       8.72034178      -0.00000588      -0.00001120      -0.00000934
I       28.50907793      11.24911021      14.99956964      -0.00000904      -0.00001051      -0.00001345
I       22.96916189       9.24376674      10.75656797       0.00000896      -0.00001406       0.00000953
I        4.62757648       0.91027246       8.66278829      -0.00000774      -0.00000724      -0.00000643
I       30.93284286       5.39210409       8.54312993      -0.00000377      -0.00001641      -0.00000601
I        4.64488579       0.89341002      12.76067345      -0.00000737       0.00003049      -0.00000933
I       30.93389827       5.37033660      12.92445629      -0.00002641       0.00001843       0.00000716
I        3.10693026       4.15854761      10.73372345       0.00001643      -0.00000616      -0.00000815
I        0.69551794       2.11327128      14.95632768      -0.00001284       0.00000359      -0.00001069
I        3.13118834       8.00920250      12.94139590       0.00001225      -0.00000637       0.00000155
I        0.68248217      12.49546440      12.82175676      -0.00001663       0.00000834       0.00002413
I        3.12902846       8.02914683       8.56011418       0.00000335      -0.00000034       0.00000223
I        0.66622712      12.51353129       8.72381098       0.00000699       0.00002881      -0.00001418
I        4.67673640      11.25492902      15.00307811       0.00000132       0.00002942      -0.00001096
I       30.91331177       9.24172801      10.75572271      -0.00000913      -0.00001017      -0.00001553
Cs      23.80370443      16.11851897       2.30319230       0.00000688      -0.00000366      -0.00000650
Cs      27.64912302      18.68354801       6.56791784       0.00001316       0.00001525      -0.00000379
Cs      23.69936076      23.17630298      15.06922437      -0.00000388      -0.00000217      -0.00000363
Cs      27.78321454      25.82022567       2.35452439      -0.00000795      -0.00000813      -0.00000802
Cs      -0.02860991      16.12444148       2.30665820       0.00000827      -0.00000029       0.00000120
Cs       3.81696243      18.68936786       6.57137547      -0.00001667       0.00001511       0.00000497
Cs      31.64339895      23.17424599      15.06798414       0.00000234       0.00001561       0.00000226
Cs       3.95081896      25.82607229       2.35806880       0.00001150      -0.00000649      -0.00000355
Pb      26.42446817      28.06127899       6.60812839       0.00000640      -0.00002645      -0.00001413
Pb      30.39659497      28.06876129       6.60775201      -0.00003652      -0.00001050       0.00001467
Pb      25.03972378      20.97357558       2.33636691       0.00000118       0.00001536      -0.00001325
Pb      21.06758619      20.96607892       2.33669394       0.00000150       0.00002084      -0.00000224
Pb       2.59216262      28.06717128       6.61166477       0.00003060      -0.00001963       0.00001267
Pb       6.56428788      28.07455184       6.61128778       0.00000677      -0.00000584      -0.00001322
Pb       1.20741486      20.97938665       2.33984823      -0.00000275       0.00001570       0.00001848
Pb      29.01168596      20.96412821       2.33560608      -0.00002871      -0.00000272       0.00000433
I       28.45279873      15.17555353       0.25332055      -0.00000701      -0.00002079       0.00002167
I       22.98177043      19.66500252       0.13847149      -0.00000514      -0.00000643      -0.00000905
I       28.47014525      15.15853339       4.35123208       0.00000788       0.00002135       0.00000412
I       22.98274993      19.64351822       4.51980346      -0.00001365      -0.00001327       0.00000555
I       26.93212963      18.42371806       2.32439957       0.00000470      -0.00000658      -0.00000660
I       24.52071205      16.37835636       6.54662938      -0.00001302       0.00002328       0.00001261
I       26.95641721      22.27437748       4.53207621       0.00000632      -0.00002008      -0.00002193
I       24.50779853      26.76041358       4.41243592      -0.00000227       0.00000436      -0.00000319
I       26.95433617      22.29431154       0.15078092      -0.00000233       0.00001027      -0.00000088
I       24.49156910      26.77878618       0.31447867       0.00001345       0.00000977      -0.00000926
I       28.50207278      25.52009723       6.59367613      -0.00000827       0.00002892      -0.00001196
I       22.96209286      23.51474773       2.35078080       0.00000963      -0.00001224       0.00000701
I        4.62054817      15.18131648       0.25690334      -0.00000117      -0.00000249       0.00000906
I       30.92577681      19.66312299       0.13726390      -0.00000010      -0.00001884      -0.00000783
I        4.63779519      15.16441244       4.35479781       0.00001386       0.00001061       0.00000166
I       30.92683298      19.64135576       4.51859921      -0.00000529       0.00000506       0.00000838
I        3.09986801      18.42955823       2.32786394       0.00000139      -0.00000201      -0.00001501
I        0.68848249      16.38426958       6.55045023      -0.00002580      -0.00002951      -0.00001048
I        3.12412599      22.28021691       4.53552764       0.00000691      -0.00001793      -0.00000621
I        0.67545180      26.76647753       4.41590436      -0.00000252      -0.00000193      -0.00000414
I        3.12193877      22.30015546       0.15423783       0.00002443      -0.00000676       0.00001045
I        0.65923627      26.78453112       0.31796072       0.00001220       0.00000574      -0.00000880
I        4.66970682      25.52592523       6.59715168      -0.00000759       0.00001699       0.00000418
I       30.90625414      23.51274986       2.34987760       0.00000660      -0.00001488      -0.00002229