40
Lattice="18.141885560462057 0.5441546769654518 -0.23509526390279034 -0.31049540307510154 10.62164426859813 0.09196132451204553 0.12213533289955304 -0.07685231325250597 9.72303283093188" Properties=species:S:1:pos:R:3:forces:R:3 energy=-124.25397613779073 stress="0.0038303170009491845 1.998837519156804e-05 -2.2723659193176352e-05 1.998837519156804e-05 0.003808263297105912 1.999804695138372e-05 -2.2723659193176352e-05 1.999804695138372e-05 0.0038802236468497863" free_energy=-124.25397613779073 pbc="T T T"
Cs      -0.77883313       7.58073960       3.51986895       0.00000209       0.00000359       0.00000455
Cs       5.19709897      16.70377875       1.08424725      -0.00000701       0.00000381      -0.00000026
Cs      -3.73756393      12.80752626       3.60165237       0.00000724       0.00000480      -0.00000450
Cs       8.15584752      11.47700615       1.00245620      -0.00000643       0.00000318      -0.00000108
Cs      -0.71773393       7.54234462       8.38139591      -0.00001335      -0.00000208      -0.00000534
Cs       5.25816232      16.66533440       5.94576326       0.00000161       0.00001110       0.00000043
Cs      -3.67651554      12.76907735       8.46316323       0.00001580       0.00001024       0.00000153
Cs       8.21689326      11.43860608       5.86397264       0.00000011      -0.00000605       0.00000145
Pb      -5.67760271       8.31700342       1.15916042       0.00005182      -0.00001850       0.00000191
Pb      10.09585551      15.96757942       3.44490374       0.00003380       0.00000016       0.00000148
Pb       1.04871121      13.83450944       1.11558906      -0.00001922       0.00000886       0.00000463
Pb       3.36955325      10.45004982       3.48853511      -0.00002671      -0.00001354       0.00001899
Pb      -5.61652355       8.27854580       6.02067739       0.00005552      -0.00000672      -0.00000182
Pb      10.15695072      15.92914349       8.30641788      -0.00001223      -0.00001702       0.00001862
Pb       1.10975858      13.79606986       5.97712064       0.00002464      -0.00000383      -0.00001091
Pb       3.43062627      10.41160120       8.35006820      -0.00004170      -0.00000411      -0.00002318
I       -6.81543748      10.12836945       3.61956482      -0.00002292       0.00002158      -0.00000058
I       -6.90818061      13.61201708       1.21962462       0.00000885       0.00000136       0.00000538
I        2.13850482      15.71163535       3.54796061       0.00001209       0.00001244      -0.00001470
I        2.27975210       8.57288275       1.05620122       0.00000563       0.00000320       0.00000235
I        9.41282778       7.37809867       0.95029923       0.00000139       0.00000477       0.00000685
I       -4.99454986      16.90645877       3.65373480      -0.00002799       0.00000268       0.00000455
I        4.18261609      12.53542008       1.06371721       0.00001910       0.00000199       0.00001311
I        0.23563605      11.74913538       3.54039784       0.00000491      -0.00001217      -0.00000606
I       -2.95048226       9.82933444       1.13555862      -0.00003220      -0.00002136      -0.00000879
I        7.36876296      14.45522709       3.46855822      -0.00000609      -0.00000831      -0.00000222
I       -1.76290163      15.18164176       1.16407605       0.00001287      -0.00000159       0.00001128
I        6.18115142       9.10291122       3.44001067       0.00002303      -0.00001840       0.00000363
I       -6.75436384      10.08995570       8.48104103      -0.00002604       0.00001113       0.00001378
I       -6.84708978      13.57360631       6.08111824      -0.00000966       0.00000141       0.00000957
I        2.19958809      15.67321752       8.40945079       0.00000182       0.00001148       0.00000853
I        2.34083986       8.53446482       5.91769846      -0.00001442       0.00000519      -0.00000401
I        9.47389171       7.33967334       5.81183921       0.00000276      -0.00000159      -0.00000068
I       -4.93347723      16.86803466       8.51529288      -0.00002083       0.00000210      -0.00000877
I        4.24367478      12.49698396       5.92526229       0.00001867       0.00000510      -0.00000840
I        0.29670785      11.71069662       8.40193482       0.00000324      -0.00000775      -0.00000527
I       -2.88940243       9.79088391       5.99706633      -0.00004403      -0.00001139      -0.00000683
I        7.42984581      14.41678466       8.33009561       0.00001034       0.00001983      -0.00001588
I       -1.70183321      15.14321434       6.02563566      -0.00002210       0.00001442      -0.00000390
I        6.24221870       9.06446566       8.30153024       0.00003557      -0.00001000       0.00000056
