320
Lattice="35.78794042575779 -0.37839846603646177 -0.24217113649280456 0.2257959835333163 21.00955516298944 -0.015306901360210465 0.11054213265190213 0.01896394099226511 19.312856914076352" Properties=species:S:1:pos:R:3:forces:R:3:momenta:R:3 energy=-980.9163813663489 stress="0.0 0.0 0.0 0.0 0.0 0.0 0.0 0.0 0.0" pbc="T T T"
Cs       7.43708478       3.87523257       5.62002194      -0.01414892       0.12319840       0.38061495       1.72473315      -2.36975827      -0.12435066
Cs      13.55112660      12.40005397       3.62780907      -0.11761026       0.23204380       0.01163409       1.92671331       1.21530278      -2.35009174
Cs       4.63621802       9.37126801       6.26584056      -0.19787606      -0.24620160      -0.09805651       0.62772012      -0.86186541       2.18360211
Cs      16.29225119       7.60792133       3.48918923       0.08730133      -0.21315740       0.19061629      -1.57959889       1.57095211       2.83261600
Cs       7.46585674       3.89504682      10.69981696      -0.08444831       0.10462743       0.00112163       2.71812850       1.67325782      -1.12326439
Cs      13.57450562      12.72173468       8.48281004       0.10660322      -0.20079520      -0.08045297      -2.74625411       1.73866136       2.77710581
Cs       4.69098134       9.09989984      11.34511942      -0.16723686      -0.09342534      -0.34355459       3.43727909      -0.62523937       2.74999673
Cs      16.81581022       7.06986450       8.26751602      -0.22969026       0.10598301      -0.05718477       2.59030980      -2.21376107      -1.50599490
Pb       2.48055852       4.83345237       3.49041114       0.06830029       0.16760910      -0.11738433       1.32851378      -3.78453512      -4.25228942
Pb      18.46971972      11.88374889       5.70501778      -0.23108742      -0.10988535       0.23005208       2.82483340      -1.70632671       0.07355592
Pb       9.37281068       9.58050374       3.49184650       0.01742513       0.11764842       0.24572605       0.03842093       3.43695435      -4.29816992
Pb      11.60907383       6.86066086       5.89247293       0.04418455      -0.46502738       0.05374661       0.91034087      -0.14963167      -3.26257674
Pb       2.67673676       4.75854486       8.30859390       0.29477483       0.15220202       0.14873747      -0.87949520      -2.70960822       3.39132502
Pb      18.51859247      11.51896903      10.76281040       0.30083824       0.49118165      -0.34545318       1.22084008      -2.86350519       1.58784334
Pb       9.37697383       9.63177372       8.58963518       0.20597459      -0.15326479      -0.24449118      -1.12821817       4.76695220      -1.67642872
Pb      11.71443901       6.59621964      10.92367490       0.19520232       0.16933712      -0.22763736       0.22426678       2.30525237      -1.98503712
I        1.57895275       6.65525310       6.08130996      -0.18789213       0.19997673      -0.19834704       0.42183248      -2.82169375       2.41225022
I        1.26101959      10.11215161       3.59041272       0.27256122      -0.26129759      -0.00486735       3.32385046      -0.45165283      -4.35042326
I       10.53494538      11.52395777       6.11812751      -0.14400421      -0.15755179      -0.27163233       2.29070911       3.48041134      -1.28096657
I       10.27745322       4.83673449       3.47305455       0.32081381       0.08945235      -0.01002767       2.98939152       0.71686481       1.50195159
I       17.25500416       3.09491765       3.59771774       0.27568227       0.37453661      -0.12319137       0.29180777      -2.03836136      -0.31592665
I        3.37050849      13.24111954       5.84467010       0.47369207      -0.18097849       0.25151222      -1.10505887       1.94675067       0.58493664
I       12.52930063       8.42724534       3.18774862      -0.16950321       0.18385516       0.08178519      -2.49453246       0.93450749      -1.75112100
I        8.35724593       7.68120296       5.98530984       0.14996572       0.26474126      -0.06994761       4.41496672      -1.22236911      -3.31462245
I        5.21905387       6.31124062       3.66296437       0.10199541       0.03899905      -0.17097644      -4.22018469      -3.76303786       1.86809327
I       15.70243778      10.31427478       5.97276548       0.02781031       0.05652722       0.10062970       2.82796656      -0.25717884      -1.34999085
I        6.60964955      11.10065036       3.92419742       0.04867662       0.14630716      -0.29635985      -0.70980127       1.59236784       1.58619018
I       14.16978386       5.01948089       5.94277813       0.14429456       0.16454532      -0.08162217       2.13315446       0.50421577       1.07535133
I        1.51171169       6.52065128      10.85073248      -0.00398349       0.07961804      -0.11047773      -1.23363603       1.85031174      -0.99649182
I        1.64149903      10.19690270       8.54900149      -0.17175407       0.11242047      -0.09515725      -1.82284603      -0.62623352      -3.85673592
I       10.48793066      11.63998446      10.67796472       0.03036307       0.16717811       0.13183716      -1.83860237      -0.12045100       3.36501361
I       10.67395609       4.90803295       8.37201952      -0.08927759       0.02567030       0.06466811      -1.23384331      -0.23031444      -1.11020688
I       17.50890984       3.01767739       8.17851397      -0.09420887       0.27347303       0.23666610       0.03842348      -0.73970946       0.62439140
I        3.69403140      13.14426023      10.82744254      -0.30350168       0.00454561       0.01100302      -1.87665455       0.31563987       0.00038699
I       12.80654842       8.51042797       8.46434676      -0.28355780       0.13410829      -0.09062984       2.50006550      -3.00012902       0.64347349
I        8.52324134       7.67503178      11.06641708       0.04496814       0.29202998       0.09665514       0.93117380      -1.96112275      -2.20814564
I        5.44405275       6.34282798       8.31529654      -0.28555114      -0.31434897       0.10404018       1.13839639       1.18837973      -1.55276288
I       15.85121615      10.21224723      10.79198081      -0.54791971      -0.10199825      -0.06202613      -3.13998172      -2.02212704      -1.31665725
I        6.64301787      10.94994034       8.85404013       0.06858834       0.51025095      -0.12801651       0.42730183      -4.01202436      -1.55536067
I       14.37706626       5.00848131      10.83937154       0.09376672      -0.00701590      -0.02646413       2.31289864      -0.39381895      -0.33911651
Cs       7.11920073       3.94209878      15.61909463       0.15692474      -0.05964261      -0.07526924       0.86842968      -1.61056431      -3.08344017
Cs      13.27735404      12.24805035      13.52572588       0.27125103       0.17431803      -0.28210437      -2.78905448      -1.54547620       1.06152102
Cs       4.50773655       9.30120002      15.88306722       0.03576784      -0.10093872      -0.17192780       0.45072105      -1.97505822      -0.63194802
Cs      16.46253288       7.44243361      13.02789272       0.03445125      -0.13848552       0.12115535       0.34375674      -3.40717105      -0.41715105
Cs       7.29358479       3.71129958       1.17063659      -0.08103508       0.42068301      -0.06418668      -2.32827610       3.18478170      -3.05535849
Cs      13.11798861      12.73731976      18.29127929       0.47973340      -0.03065252      -0.22171660      -1.58810513       1.28989528       1.41116959
Cs       4.29165247       9.24624615       1.34338980       0.00854020      -0.31784177      -0.00757180       1.75953554       0.24730024      -4.58261072
Cs      16.47242033       7.58846352      18.02751713      -0.12386129      -0.21875179       0.06197531      -2.83133371      -0.22482559       1.42759706
Pb       2.64936125       4.75671274      13.33873398      -0.26607525      -0.42507141      -0.47283537       2.76008788      -2.85059032      -1.48921002
Pb      18.41929614      11.84622686      15.36655248       0.24229331      -0.19703986       0.38312053       0.27320775      -1.29148348      -0.73040323
Pb       9.34131180      10.05711620      13.38483971       0.00252356      -0.33140710      -0.12183919       2.55767200      -0.51562049      -0.92456788
Pb      11.72728593       6.42832538      15.44052100      -0.42664758       0.18112342       0.45338914       0.92318680       1.11035790       2.58147324
Pb       2.34609901       4.57931050      18.03724640       0.55531265       0.24560893       0.33337898      -1.02223421      -2.19492523       1.24274299
Pb      18.15542097      11.65407140       0.90724769      -0.50643562      -0.07592475       0.01737203       2.41851288       1.26672267       5.04227785
Pb       9.33691643       9.69951874      18.03806049      -0.05359037      -0.22815359      -0.16177289      -4.34445865       3.59936572      -0.87164169
Pb      11.59825198       6.30993031       0.73999987      -0.19334051       0.09777681       0.14772892       3.64014808      -1.02341658      -0.01220454
I        1.54541769       6.49688147      15.64439001      -0.25546750       0.28208229       0.16691510       0.88081800       0.58054862      -2.39739480
I        1.38165764      10.01676061      13.30886681       0.09309034      -0.09143337       0.27035876       4.92649879      -0.16209233       0.56195576
I       10.33854395      11.76163723      15.91086752      -0.02683642       0.42192588      -0.45140943       0.57485733      -1.94996384       1.23401041
I       10.61521256       4.64214580      13.06166861      -0.04731689      -0.12863241       0.28382031       1.35196668      -0.59435261       0.88205587
I       17.91852891       3.36269253      13.01110700      -0.62217823       0.21933646       0.35758471       1.06448217       1.66946937       1.52127504
I        3.49139472      13.08127243      15.72789461      -0.55375147       0.25907995      -0.40259634      -1.19597384       2.24141609      -2.68619086
I       12.67527945       8.88793993      13.53838433      -0.39900000      -0.46321431      -0.30540931       2.00501426       1.28688715       0.10609991
I        8.21334489       7.71555296      15.33299008       0.55337136       0.29900543       0.35078190       2.30878140       1.76656327      -0.28749388
I        5.23792507       6.17658842      13.27999211       0.37448823       0.12190184       0.03361117      -1.50760378      -1.00443429       1.52302781
I       15.88574829      10.20124347      15.57142889      -0.47617927       0.23934862       0.08764960       1.00558739       1.64417048      -0.18509407
I        6.68364204      11.70721258      13.29963503       0.00679522      -0.30243016       0.10015817      -2.08671484      -0.59186686       1.07555287
I       14.46958008       5.23966025      15.77640310       0.06851095      -0.35655360      -0.05735349       1.44805250       1.78684908      -0.70175790
I        0.92699002       6.65351328       0.93692577       0.41519591      -0.27061816       0.19766156       0.12678707       0.47579806       0.34706117
I        1.31828840      10.10491319      18.14210428       0.17178707      -0.45250124      -0.11441172       1.12628295       2.57209093       2.67027124
I       10.35979121      11.61672458       1.05948339      -0.11348126      -0.01285427       0.04109314      -3.13969939      -0.88208368       2.30492084
I       10.42195651       4.33305516      17.93990358       0.35591178       0.42133649      -0.17881063      -5.18686836       2.47556579      -0.78042298
I       17.65257053       3.23418758      18.11003223      -0.30567797       0.24198924      -0.16148450       2.88137775       2.10588773       0.47950034
I        3.31851445      13.11632161       0.67632078       0.34010311      -0.07499852       0.22700898       0.33028544      -2.68600558      -1.84363799
I       12.68101661       8.67058956      17.82223149      -0.44009792      -0.35457421       0.01330342       0.34248269       1.71225563      -2.34246800
I        8.32642379       7.84270494       0.88404260       0.05683642      -0.27328222       0.46303109       0.27921444      -3.17408283       0.75902888
I        5.09541274       6.23982286      18.02453265      -0.04208297      -0.14514883       0.17035893      -1.70812785       0.80363858      -0.44461761
I       15.17882166      10.36771238       1.20660074       0.43264148       0.14043696      -0.12624452      -0.11819479      -0.64903779       1.48595424
I        6.53589429      11.11140736      18.34827845       0.16218571       0.15037729      -0.27648583      -1.51635143       0.66476467      -0.00008029
I       14.41452504       5.14547864       1.20273359      -0.10795710      -0.26667276      -0.15012979       1.54701993      -5.89117800      -1.77549026
Cs       7.57722355      14.07735418       6.04991592      -0.12180840       0.04022779       0.06604314      -3.92418270      -2.65367713      -2.98020921
Cs      13.48659727       1.95904890       3.71104369      -0.04462802       0.17099734      -0.16610304       0.40716838      -0.64396000       1.39423979
Cs       4.82967122      19.89616590       5.96394847       0.04804864      -0.23331735      -0.05656601       2.58737625       2.41367103       0.69954699
Cs      16.51948376      17.83132256       3.91374183      -0.01608671      -0.01588497      -0.23923853       0.21937433      -0.78341305       0.81093508
Cs       7.49925217      14.57990532      11.06986224      -0.04185537      -0.19069246      -0.40563181      -4.06844113       0.76739474      -2.09532902
Cs      13.58847856       1.99024102       8.21363033       0.01171808       0.19921162       0.22215634      -0.62813235      -2.66537416       0.04111498
Cs       4.43954831      19.80140440      10.49891253       0.31477970      -0.14089389       0.02916861      -0.72871931       1.68107590      -1.09985741
Cs      16.30007848      17.99528030       8.54963222       0.10043161      -0.22470376      -0.01095943      -2.41055251       1.34863934      -0.67180503
Pb       2.79704243      15.04576786       3.25083301      -0.26658241       0.62956756       0.17297594       0.74680382       4.43043065      -1.46532495
Pb      18.22346682       1.18182618       5.71460471       0.31727756      -0.23842943       0.47413730       1.00607631       5.36960889      -0.00001280
Pb       9.57371696      20.56155976       3.51036254      -0.11409898      -0.08872265       0.28666528      -3.21322552      -0.13006984      -1.69063761
Pb      11.52294553      16.90737198       5.88252769       0.08302041       0.24763077       0.09424592      -2.02457019       0.46374803      -3.67873159
Pb       2.60079134      15.24472929       8.46582983       0.35018991      -0.15225634      -0.40452913      -1.13968719       2.41322858      -3.53018877
Pb      18.62679897       1.26835069      10.91379232      -0.02308747      -0.06908692      -0.48307706      -4.89231818       2.14274171      -5.80852681
Pb       9.72087691      20.53651334       8.58460569      -0.46042338       0.19530057      -0.38127582      -0.77309941       3.82973355      -0.40922661
Pb      11.66496157      17.22120405      10.99969761      -0.16799810       0.06240231      -0.48083378       3.27319421      -1.07467538      -2.87458455
I        1.76508471      16.90582971       5.85838737      -0.11426622      -0.02792641      -0.21064277       0.16014460       0.29966887       0.04336828
I        1.69576737      20.40311835       3.34212129      -0.09975111       0.06932185       0.06968731       4.17783346       0.86035525       0.21151691
I       10.45359067       1.21306676       6.00304430       0.17243206       0.33334655      -0.14064097       0.77393472       1.59641458      -2.03403276
I       10.12453274      15.24091441       3.26817233       0.24662164      -0.15508091       0.50474361      -1.07521836      -2.15911916      -1.47170279
I       17.37748051      13.77020478       3.29230418       0.03705143       0.25260798       0.12503140       0.01552315      -1.67267221       0.91783168
I        3.27505063       2.68849891       5.81241345       0.17934213       0.08440072       0.00233747       1.55842655       1.91718355      -0.68123296
I       12.77411205      18.94348192       3.52604818      -0.39476452       0.16743426      -0.03186819       1.39742419      -0.62920179       1.14127204
I        8.51486906      18.71512241       6.07067900       0.20131149      -0.24047379      -0.13521893       3.56866153       0.69131606      -2.67703267
I        5.39154189      16.60839476       3.51322814       0.21136761      -0.04684606       0.01557801      -2.02125476      -1.84696334      -0.65806518
I       15.70789915      20.80641777       6.06499617       0.02008248      -0.09989214      -0.10045969       2.63976244       0.50425962       0.85804136
I        6.56589370       1.06627904       3.49932257       0.19850230      -0.34052018      -0.05827211      -0.09007238      -0.44046173       3.65540539
I       14.34404032      15.51447438       5.90612533      -0.20494622       0.06140644       0.10739333       3.10817473       3.16785421       0.84671973
I        1.52693741      17.17467307      10.63266230      -0.02764808      -0.01691069       0.36524066      -0.65146730      -0.22935739      -2.05060613
I        1.64299316      20.10563213       8.07990632       0.01416576       0.26303602      -0.04068270      -0.23181945      -1.80815287       0.96084527
I       10.76016638       1.57750333      10.70096930      -0.18142750      -0.06990574       0.15950000       1.45128174      -2.30444553       0.92652676
I       10.45755302      15.35749351       8.38154661       0.01248821      -0.07319352       0.19673263       0.36399452      -3.40627467      -0.64987132
I       17.62560586      13.63004877       8.27990131      -0.22530942       0.29540588       0.15451262      -0.99564684       2.24666713      -3.86380488
I        3.47103751       2.75541818      10.74688399       0.10977581       0.02320799      -0.05640461      -3.91469457       1.33686845      -1.20656137
I       12.60266327      19.11360007       8.31111592       0.00981876      -0.26206562      -0.15588101       1.58065225      -1.01335712       0.27414956
I        8.47421982      18.61091679      10.63343321       0.05254310      -0.03174715       0.41393735       3.21506093      -0.85050900       3.45692493
I        5.59306193      16.35517616       8.27545895      -0.46363138       0.19127678       0.05529312      -0.18002726      -0.25792904       0.19158497
I       16.05743546      21.11392079      11.00653534      -0.42883528      -0.22711245      -0.21506409       1.09410037       1.36528729      -1.49208484
I        6.71169404       1.23618271       8.37697454       0.13557263      -0.31505660      -0.01108112      -0.98636688      -0.72098587       0.04588280
I       14.13518132      15.41731933      10.91131009       0.27690687       0.13367826       0.15776132       3.00942587      -0.43344209       1.60968729
Cs       6.82248987      14.41978461      15.68146572       0.41372751      -0.00312572       0.10167365      -2.26780081      -1.37679096      -2.24527747
Cs      13.81824308       2.05842355      13.34121744      -0.13537546       0.24685298       0.01026808       1.21261077      -0.26239142      -1.78295859
Cs       4.93242137      19.36216221      15.88433154      -0.08452603       0.27692837      -0.25533188       4.17939613      -1.43600551      -2.38889136
Cs      16.38781323      18.13860188      13.11235162      -0.09234978      -0.38707708       0.08606167       0.02459492       0.76067067      -1.02978288
Cs       7.13789079      13.85241228       1.16266019       0.12733183       0.26320025       0.07336032       2.02685991       1.43367259       2.07387509
Cs      14.05699606       1.49845915      18.29978929      -0.37774083       0.59699682      -0.16043607      -0.49305564       3.41680168       1.27262041
Cs       4.78326011      19.68248716       0.91627605      -0.08291907      -0.01289710       0.27584023       0.00441079      -3.03826715      -3.12737048
Cs      16.11892563      17.85105157      17.94344981       0.27569700      -0.04000208       0.08438379       1.78130881      -1.01488206      -1.49217604
Pb       2.44384999      15.20030945      12.96298588       0.20614302      -0.21630599       0.54747409       2.22123218      -3.27358783       2.49392196
Pb      18.34984398       1.27265292      15.68008738      -0.18723350      -0.05881586      -0.26684255      -1.55600828      -0.57254429      -3.90441189
Pb       9.40598016      20.86380615      13.00561360       0.04777356      -0.31265710       0.28073983      -1.33938998      -1.11745606       0.30506473
Pb      11.48771256      16.91861813      15.46709813      -0.13196315       0.24573853      -0.21155004       3.91010282      -4.64258899       0.83667457
Pb       2.44048092      15.16121063      17.72608183      -0.32771488       0.34794705       0.12726274      -2.91412613       0.29976668      -1.45396118
Pb      18.58859612       1.34208729       1.14484226      -0.19479649      -0.17270334       0.13380400      -2.18741021       0.54784305       3.25022629
Pb       9.56255903      20.53233964      18.13392926      -0.17815201       0.03695495      -0.43223760      -2.69908894       2.94291867      -0.15512476
Pb      11.51892333      17.10586144       1.21796379       0.07003180      -0.04581818      -0.14158519      -2.32429798      -0.67921274       2.50060399
I        1.69219333      17.41775347      15.30980814      -0.06071537      -0.29976231       0.21527231       0.14314952       3.49518071       0.39648521
I        1.94170802      20.82152012      13.14009715      -0.19263939      -0.13201816      -0.09520989      -1.12888863      -1.11839550      -2.23784833
I       10.35402557       1.47064352      15.65799839      -0.00499324      -0.19097401      -0.06507603       0.77597616       1.91175885       1.33897769
I       10.19393758      15.24904728      12.86167328       0.09293579      -0.19037175       0.56601254      -4.93806807      -2.60103335      -1.67189703
I       17.51478155      13.73693979      12.99584119      -0.21796306       0.04337449       0.21803132       1.32875571       0.28539673      -2.03399572
I        3.47742657       2.58986551      15.61515888      -0.08927951       0.03274046       0.10921074      -0.16516340       0.02406150      -0.80080610
I       12.44328535      19.45603799      13.20512271       0.08435001      -0.50580981       0.09169732      -3.93953250      -0.66919504       1.10611483
I        8.38203194      18.71972324      15.40112329       0.41675177      -0.05603440       0.14114296       1.95413888      -2.16576624       0.19487210
I        5.19802253      16.64613264      13.07435515      -0.05941165       0.11100881      -0.03244797       4.46622610      -1.84730739      -0.62129319
I       15.62090047      20.74530994      15.65450078       0.57814607       0.23566110      -0.04552158       2.23753184      -0.64248822      -1.60205327
I        6.24563916       0.79349811      12.94262490       0.05381903       0.33249348       0.18313328       2.51185293      -0.91510698       0.27060917
I       14.26695785      15.49334032      15.51635000      -0.17873434       0.07950989      -0.06952688      -2.64889396       1.81560237      -0.92693899
I        1.51602633      17.24536356       1.17916028       0.15421235      -0.34174312      -0.34858059      -0.59837707      -2.08260388       0.73013794
I        1.77989123      20.88345301      18.00147399       0.01713941      -0.46661453      -0.25871055       1.77336632      -1.95279475      -2.90392457
I       10.52037254       1.34328838       1.14518933       0.04712879      -0.09188722      -0.05414083       1.48381000       0.70465246       1.74161606
I       10.28486347      15.41059224      17.92234734      -0.06552900      -0.14159393       0.16062898      -1.73782439      -1.78946912       0.12183009
I       17.25740861      13.64566965      17.83677312       0.33407997       0.22502013       0.04621030      -0.36498427      -0.85142501      -3.87438358
I        3.45343613       2.63155209       1.30291982      -0.22868069       0.21353481      -0.18859741       0.52121443       1.59331454      -2.28921541
I       12.40242543      18.83559844      17.78568878       0.25617496       0.33802905       0.09365675       2.25392786       0.63788957      -3.35920951
I        8.49171506      18.54284006       1.22042578      -0.12452420      -0.12042184      -0.13604268       0.38891357      -1.36772922      -0.13532084
I        5.20693777      16.37972085      18.27330146       0.40774380       0.22179847      -0.05391273       0.74934324      -2.03458841       0.81670913
I       16.15372504      20.77102890       1.26970668      -0.43303658      -0.21870776       0.06770211       1.04697355      -4.26935177       1.29916054
I        6.63195345       1.14263199      18.14352005       0.01249506      -0.22097139      -0.11656702       2.35078421       1.88836715       5.44714945
I       14.39423058      15.89464553       1.30444799      -0.23046275      -0.36452201      -0.03297783       0.16045644      -1.58390157      -1.75874299
Cs      25.27193231       3.67482910       5.58577883      -0.04974263       0.27604569       0.25608036       2.86578679      -0.36810012      -0.18922178
Cs      31.78800907      12.53981303       2.80274276      -0.22228419      -0.04760004       0.40490895       3.73183697      -0.20948237      -2.32116173
Cs      22.60519067       9.23605348       5.82637222      -0.11716260      -0.25942796       0.10154422       2.49744545       1.36316861      -1.92116523
Cs      33.97673072       7.08288373       3.43279361       0.18331282       0.07758871      -0.11609458       0.15311902      -0.99699275       0.43972154
Cs      25.42492792       3.84776129      10.70190242      -0.00765182      -0.25416836      -0.01702022      -0.67494554       0.51088026      -3.31686456
Cs      31.64039002      12.25912711       7.95947351      -0.12470142       0.06255294       0.06983731      -3.68138795       0.54617035       1.69273782
Cs      22.96452101       9.02693985      10.82314938      -0.35702306       0.05554157      -0.11447546       0.65087412       0.86874792       2.50845052
Cs      34.37174253       7.21789728       8.16228745       0.02447064       0.18423237      -0.00226854       0.74571115       0.93736751       1.48197206
Pb      20.61915832       4.58727370       3.59903619      -0.24110808       0.07419094      -0.22235407       2.96122121      -1.31579098       2.78534604
Pb       0.56164940      12.05609486       5.89056217      -0.63791322      -0.42356971       0.42060448       2.24934268      -1.16842855      -0.61965426
Pb      27.24822446       9.77290089       3.29403773       0.41214380      -0.08847808      -0.57093429       4.92829383       3.65921706       3.38449349
Pb      29.62367396       6.26949982       5.64793621      -0.40106065       0.53687795       0.25005997      -0.72239314      -4.36460830      -0.60302415
Pb      20.68147616       4.30179480       8.46571935      -0.55450914       0.60622522      -0.19876437       5.65836264      -2.03704973      -3.04297526
Pb       0.36400574      12.00090958      10.98852351      -0.07472482      -0.25817662      -0.14089931       0.58201095       1.23172613      -3.47056393
Pb      27.40635064       9.99215115       7.78920525      -0.21905579      -0.11663047       0.37945342      -1.26299223      -0.85745126       4.11385644
Pb      29.37614428       6.22863369      10.40105041      -0.23325763       0.57033868      -0.20135134      -3.10630838       6.06755536      -1.57129656
I       19.85414716       6.40477457       5.69668005      -0.30567288       0.06818265       0.29929728       1.25602076       2.79021779       1.72927954
I       19.45327410      10.02949768       3.38956675       0.19742433      -0.25325376      -0.13777149       3.19539959      -2.31065200      -0.99671236
I       28.51857710      11.79534359       5.50468384      -0.05695461      -0.05306132      -0.19255008      -1.89416749      -3.60339962       0.43756629
I       28.44567224       4.44410874       3.34686287      -0.10330441       0.14741944      -0.30107277       0.60984281       0.39800445      -0.80140742
I       35.48391208       3.13456804       3.25105504      -0.57333218      -0.16079598       0.23558147       0.00618018      -3.58156077      -2.28920649
I       21.48732801      13.20861105       5.97973737      -0.01317736       0.19320591      -0.38546518       1.11176869      -0.72005781      -3.06631134
I       30.68745933       8.35612315       3.30937199      -0.82761900      -0.18203314      -0.24029380       3.11748192       0.02022518      -0.96972959
I       26.43520547       7.90742971       5.47154662      -0.09576396      -0.27484296       0.28951830      -1.78261605       3.99794550       0.70542765
I       23.25214765       6.17286105       3.35635621      -0.02367171      -0.22311813       0.00097282      -2.57418780      -0.47672040       0.12921597
I       33.39524178      10.20481010       5.54969832       0.43957341       0.09582645       0.06773311       1.29211253       0.63876520       2.93259241
I       24.39003894      11.01221319       3.07940028       0.27621537       0.23784838       0.32897496       2.15572248       3.02171023      -2.36059861
I       32.14938960       4.93976860       6.03965724       0.46546499      -0.35168278      -0.24610543       1.96660171       2.13478705       0.65584726
I       19.60471653       6.75445635      10.71838914       0.16516240      -0.50933972       0.05935284       4.54646161       0.27938746      -2.05487006
I       19.56656755      10.00767535       8.13050236       0.16778076      -0.25250017       0.00868933       0.52297898       2.84252805       0.48284879