320
Lattice="25.121854697261806 -0.05977452525107978 -0.12957468506993428 0.07192418218408468 24.82535238426277 -0.21579304325525844 0.12447059888337542 -0.778188195725328 24.81728374174729" Properties=species:S:1:pos:R:3:forces:R:3:momenta:R:3 energy=-980.1493127111671 stress="0.0 0.0 0.0 0.0 0.0 0.0 0.0 0.0 0.0" pbc="T T T"
Cs       9.63870543      14.96994139       5.88534466       0.05228792      -0.13604798       0.09892757      -0.66900027      -2.57940517      -2.33646723
Cs       3.11485826       9.77640862       4.95669413       0.12542600       0.01401066       0.05394924       2.34325388      -1.70291936       0.86791622
Cs       3.09729584       9.80027399      11.43764330       0.01927265       0.09972386       0.09155039       1.84789855       0.38765649      -0.35888066
Cs       9.66309795      14.97040599      12.33206020      -0.04670249      -0.01742570       0.00065502      -3.17158759      -0.85808629       0.05703412
Cs       9.28222081       8.77636412      12.02967511       0.06831055      -0.08964131      -0.02832803      -2.20618065       1.80526233       1.29859419
Cs       3.33762184      16.08143972      11.08480615      -0.03404645      -0.18451421       0.09677984       0.40832444       1.41848478      -3.10991285
Cs       3.29337637      16.58683939       5.49187800      -0.15083251      -0.11776791      -0.01292707      -0.67255411       0.64502055      -0.66664798
Cs       9.41642892       8.99562623       6.49999877       0.01127541      -0.05246320       0.05575784      -1.70662338      -0.05307730      -1.35862358
Pb       0.10025778       6.17322573       8.80193155       0.12267303      -0.08569754       0.21505248      -1.82078016      -0.10550277       0.33886760
Pb       6.63231845      12.45212095       8.68403823      -0.45331019      -0.03284003       0.16450610      -1.11086638       2.17863672       1.62835361
Pb       0.33461959      12.37172000       8.68982787      -0.27876586       0.15983214       0.19919711       0.40780411       1.33079943      -0.61006831
Pb       6.26748418       6.18112869       8.66920161      -0.10448632       0.02398378       0.00574618       0.85005695      -0.91924720       0.55014302
Pb      -0.07179321       6.54764242       2.57967536       0.32007821      -0.19255886      -0.20200455       0.15165379      -1.25565218      -0.42263376
Pb       6.39248905      12.75821792       2.52263053      -0.07561725      -0.24592206      -0.16204836      -2.26431669       1.77420701       1.24207720
Pb       0.21389196      12.74639805       2.39705952      -0.00515995      -0.00200770       0.21755253      -1.09546371      -1.46760610       0.01890690
Pb       6.38072990       6.42979112       2.55211177      -0.29054102      -0.01030187      -0.16721960      -3.02091875       0.36285285      -1.39750645
I       24.71325273       9.29399211       9.32710779      -0.04359980      -0.25292607       0.08300269       2.17511903       4.28510222      -1.86375271
I        6.08437532      15.54390031       7.95551331      -0.05733225      -0.14624641      -0.03723729      -2.19730291       1.86881907      -0.35901717
I       13.25955762      15.60963499       7.76988117      -0.02432788      -0.39427264       0.01408204       0.15254930      -0.43107305       2.36119333
I        6.62170562       9.36376258       9.41843507       0.01293982      -0.22910691      -0.01879712       0.58813915      -0.47739300      -0.39656874
I        9.61941207      12.58159007       9.16784791       0.14527403       0.11175775      -0.01841897      -0.20372219       0.04760482       1.17280054
I        3.34288495      19.19744317       8.65129078      -0.06194365       0.00495113       0.05960504      -2.92801744       0.00083478      -1.37496444
I        3.26325507      11.91692437       8.26997382       0.36377951       0.05159850      -0.01414905       1.71436058       0.25101710       0.32144760
I        9.30485948       5.69153025       8.55478294       0.29294316       0.06053813      -0.07956511      -1.10107633       0.12882798      -1.69147403
I       12.36153553      15.78102653       3.23790979      -0.00899540      -0.30216282       0.06674821       0.02345238      -0.75878835      -0.31122178
I        6.09007608       9.43268655       1.87142628      -0.18577138       0.28775638      -0.02049003       1.78222690       0.00266414      -0.00931416
I        0.43910991       9.26484592      14.24345790       0.11443920      -0.00906470      -0.06663476      -1.36786403      -0.22854447       2.18550619
I        6.88798551      15.39454659      15.38168982       0.08594784      -0.20647060       0.19253911      -0.52353520      -0.32184434      -2.26634644
I        3.35359216      12.65751889      15.43175776      -0.16147960       0.12334779      -0.00933704       1.42448298      -1.02546715      -1.46671543
I        9.59026533       6.77759406      15.10839587      -0.21335907      -0.14283745       0.02641311      -0.49499976      -0.96157811      -1.84841511
I        9.56120549      11.93310175       2.20291628       0.04268675       0.12371337       0.02974537       0.15348617      -0.63918532      -0.14492824
I        3.27397662      18.39092210       2.02189199       0.23732723      -0.02969834      -0.10386669      -2.60523720       1.95009849      -0.56921906
I       24.81929183      17.79139952      11.58128388      -0.02390166       0.16177772       0.21609750      -1.04342661       0.24777666       0.63161053
I        6.03324196      13.12453567      11.89514295      -0.05855003      -0.02398448      -0.18273229       1.71004235       1.22659960       0.06706467
I       13.08287914       6.81409933       5.58218793       0.01042263       0.17633068       0.17925290      -0.47509856       0.98293009       1.06455416
I        6.94376723      11.64296034       5.68529998      -0.06262476       0.12989204      -0.24198162      -2.24347430       0.09451713       1.88054311
I       25.15061090      11.69467475       5.44726812      -0.14260627       0.04597294      -0.04752858      -0.87943295      -2.02462143      -1.70973988
I        6.23937858      19.10024339       5.33610861       0.02200845       0.06526271       0.19983501      -0.67653694       0.71328722       0.42169220
I       13.41145033      12.75256973      11.78631322      -0.07658550       0.10780926      -0.10745878      -0.72845556       0.22592994      -0.58675536
I        6.59048147       5.46319376      11.79598244       0.05910003       0.00956713      -0.09703607      -1.93409048      -0.01339100      -0.40686842
Cs       9.84840589      14.55451914      18.08285858      -0.24016728      -0.00707337      -0.07304615       0.48547864       0.51246408      -0.61420447
Cs       3.35932818       9.61420202      17.61386449       0.03733081      -0.08278470      -0.03383979      -1.40199317      -0.52247980      -0.31592588
Cs       3.31024305       8.91684171      23.87852962       0.11566092       0.22448658      -0.08129602       2.05412191      -0.25004003      -0.40248853
Cs       9.62657279      15.30224696       0.32646935      -0.02960610      -0.10016554      -0.06300826       0.12567508       1.44131277       1.58902722
Cs       9.35498828       8.08877025      24.58531436       0.06695237       0.04531724      -0.09530084       3.54745563       2.28124269       0.51999019
Cs       3.47903931      15.30575002      23.60529975      -0.05332823      -0.03838301       0.01388858      -0.18116594      -0.53893138       0.27301640
Cs       3.15142389      15.96140565      17.78377271      -0.02464787      -0.03058556      -0.18431082      -0.39280060      -1.02887487       1.89312513
Cs       9.69488959       8.39441767      18.56822727      -0.05681949      -0.03470989       0.11859561      -0.59636127      -1.33040628      -0.39646408
Pb       0.09783478       5.79638096      21.10683425      -0.03149991       0.15862806      -0.17498013       0.33641757      -2.88273691      -1.83545502
Pb       6.69163514      12.04523202      20.86392886      -0.43658309      -0.10465567       0.53221352      -1.41022689      -1.27806076       2.56671559
Pb       0.18166825      12.18456578      21.10292064       0.17751436      -0.24033276       0.10301634      -0.17641203      -0.14914109      -0.54708820
Pb       6.59839292       5.72440947      20.98866658      -0.33431471      -0.00905146       0.22595498      -0.99769219       2.02094129       1.76833183
Pb       0.18479318       6.15476681      14.93632127      -0.17302803       0.00791091       0.04785863      -0.80716640       2.21070173       5.02712311
Pb       6.56010040      12.17075707      14.85068486      -0.27136418       0.23659584      -0.04212392       0.74089009      -2.14783123       1.02864161
Pb       0.19566349      12.30706361      14.93680673      -0.20940235       0.40211655      -0.25801327       1.39753430       0.88478280      -0.15942632
Pb       6.37371355       6.03353799      14.86903142       0.19227727       0.18641261       0.01237626      -0.95742894       2.26329955      -0.71945558
I       24.91227277       8.91607506      21.50884513      -0.07585109       0.12968299       0.10448547      -0.99963871       0.55411450      -1.62627165
I        5.98579999      14.93805057      20.08428081       0.06665798       0.40677028       0.02828559       0.41227097       1.40598973       0.83185616
I       13.13846321      14.92545446      20.44919832       0.05987740       0.36260196      -0.01199465       0.25980638      -0.57639107       1.37560626
I        6.80113380       8.82263676      21.59982387       0.17404579       0.12573265       0.12922006      -0.48117691       0.87244165      -0.60726224
I        9.67751048      12.86300806      21.49383745      -0.19790925      -0.07691290       0.09032115       0.45012559      -1.12032288      -1.07695230
I        3.45082376      18.36845607      21.54134087      -0.06907640       0.27964121       0.09927228       0.22649009      -0.59400259       0.53607624
I        3.31528564      11.62195399      20.77853616       0.14904634       0.04008218       0.12401558      -0.27136271       0.78278364      -0.10456883
I        9.63063132       4.99186198      21.13083749       0.29673616       0.11538427      -0.19600005       0.40010219       1.15702021      -0.78548258
I       12.22614521      15.30834497      15.39931929       0.14326844      -0.07304596      -0.05873551       1.11294673      -0.10271977       1.24386233
I        5.63853912       9.21257310      14.27527390       0.09023737      -0.24502574      -0.07469037      -0.76432884       0.62200548      -0.30794688
I        0.68651806       9.50552159       2.00751101      -0.00748920       0.31500524      -0.14075040       0.83636973      -2.76491570       3.48004077
I        6.98490859      15.65073770       3.42829375      -0.04774335      -0.05359620      -0.11468129       1.13964802      -0.44765039       1.41160360
I        3.32398993      13.28077553       3.17797308      -0.06200381       0.00545106      -0.00030011       0.40423612       0.61421179       1.94105830
I        9.48335226       7.10612772       3.22497284      -0.17949869      -0.14305185      -0.08352632       0.33465672       1.34798738       0.30854545
I        9.63195680      11.57734443      14.57059352      -0.08876762       0.11870294      -0.06861117       0.86550847      -0.81569135      -0.32961073
I        3.20494920      18.15895521      14.47486983       0.16059228      -0.08122218      -0.06058931      -2.03547321      -1.35387601       1.17876086
I       24.82836615      17.34819765      23.97619910       0.04654133       0.05759374      -0.04103107      -0.07808317       0.33902267      -0.53739642
I        5.91967642      12.64092867      24.20698664       0.23465429      -0.24730232       0.05021878      -1.03679673       1.97908073       0.09642433
I       12.97849008       6.65170037      17.96969999       0.02661596      -0.10156085       0.25104659       0.12384894       1.17960089       0.31318180
I        6.77475822      11.16369593      17.96390042       0.26812646      -0.00793175      -0.05944160      -0.58143408      -1.21781183       0.33745226
I       24.80533623      11.72877708      17.87504346      -0.00018692      -0.06198651       0.01184708       1.29297409      -1.06148133      -0.36749150
I        5.74802496      19.28395297      17.83814119       0.10907323      -0.10405770       0.21985559       0.96469678      -0.59940845       0.76673779
I       13.10534456      12.54085303      24.20054166       0.07910710      -0.03017713       0.24791332      -1.10525338      -0.41130664      -0.25292382
I        6.76570297       5.15152373      24.19536623       0.09946673      -0.08532378      -0.00529709       0.02265249      -2.94883326      -0.10726233
Cs       9.19881075       2.92644434       5.78641242       0.16590206      -0.10590551       0.16044954       0.54793145       1.29828880       0.19651917
Cs       3.75939708      21.90840263       4.76287925      -0.17713897       0.03802142       0.03310787       2.52683172      -0.57961419      -1.49897018
Cs       3.16661456      22.00976409      11.53414278       0.10735939       0.16568776      -0.39635266       0.95569511       0.96157979      -0.18667079
Cs       9.37871859       2.91753550      12.33759636      -0.03006104      -0.13802885       0.07157269      -1.64882898       0.31087920       1.14063550
Cs       9.55733833      20.70262117      11.98285539      -0.01346746       0.12255356      -0.02922073      -1.23757475      -1.07785560      -0.50985689
Cs       3.34093877       3.19560402      11.28514075      -0.18107519       0.08379770      -0.05213870      -1.42415355       1.29542930       0.21677159
Cs       3.12654028       3.57001959       5.03626114       0.10090659       0.00004931      -0.04293773      -2.31152560       0.73245776       1.18174663
Cs       9.62395436      21.06278025       6.14215916      -0.06317597       0.18772311      -0.12303509      -1.55972464      -0.38479982       0.72897319
Pb       0.07754600      18.68792349       8.59439947      -0.24441637       0.00286285       0.10585918       0.29472216       0.50389706       1.87482890
Pb       6.48277718      -0.01296361       8.61241327       0.08350011      -0.14144598       0.06963937      -2.74524454       0.76218183       1.60140249
Pb       0.18397549       0.01371730       8.79656670       0.07437438       0.03450576      -0.03627299       0.40264120      -2.01109247      -0.77988018
Pb       6.40363458      18.54795945       8.69055796       0.29176549       0.18823611      -0.27203253       0.07285140      -3.66716915       0.83354720
Pb       0.10853158      18.90851682       2.24404923      -0.01475391      -0.07033532       0.26034441       3.02781253       0.16892810       1.45611438
Pb       6.47878684       0.18052714       2.39575826      -0.01566620      -0.25756968      -0.03430486       1.58060544      -0.12622340      -1.61086793
Pb      -0.12088000       0.19493359       2.63912089       0.12527757       0.11260733       0.07757517       0.35789890      -3.42576120       2.56862005
Pb       6.45149442      18.64879756       2.16131246      -0.06578625       0.09946836       0.05988106       0.90298904       3.74950053       1.92114308
I       24.45256406      21.73202775       9.20776488       0.18207535      -0.05389578      -0.09433559       0.56332561      -0.15074985      -1.03542567
I        5.75826236       3.04624077       8.04891113      -0.05722858       0.15384452      -0.11194198      -0.25969421      -0.16356560      -1.14979332
I       12.98541975       3.07414814       7.91878944       0.12464309       0.15475104      -0.04523632       0.71037617      -0.65361633      -1.66847501
I        6.95791998      21.66643608       9.12050835       0.05780021       0.12904182       0.05491587       1.69827959       1.84315207      -1.88469458
I        9.61804549       0.83861269       9.22146044      -0.31374122      -0.02644872      -0.03635318       2.01076347       0.28789595      -0.36464938
I        3.19851614       6.65013356       9.32068480      -0.19397486      -0.02572219       0.01808509       1.07728486      -2.25652860       0.13434404
I        3.34273240      24.25003672       7.97308359       0.17345257      -0.12413837       0.12312130       1.10185951      -0.85334203       0.93022168
I        9.69004327      18.00990049       8.10851073      -0.12392194      -0.05506648       0.14372679       0.91335993      -0.38115666      -1.01545137
I       12.16338709       3.28079289       3.30504099      -0.00085963      -0.18088454      -0.14278072      -0.78468908      -0.49727013      -2.08118714
I        6.18355132      21.77626202       1.63461989      -0.07959465      -0.06777508      -0.09959705      -1.10660702      -0.39467813      -0.04394532
I        0.76141958      21.79506219      14.15787127      -0.12142556      -0.07675064       0.10237781       0.71056918       1.00394414       0.34198645
I        6.83293895       2.91961332      15.55342598       0.16636754       0.08219918       0.13842705      -0.95384584       1.03159786       1.23613064
I        3.27724141       0.67272841      16.12686902       0.12245822      -0.07995625      -0.12391878       1.27245717       2.29883068      -1.37267275
I        9.49559525      19.00962182      15.45246546       0.24478276      -0.01892846       0.01442537      -0.17168277      -0.62030495      -1.59948652
I        9.52503367      24.25456042       1.46455867       0.20042671       0.26922881      -0.12635247      -0.61194222      -1.64151095       1.06340450
I        3.08894724       5.84250623       1.83061145       0.18468558       0.12400618       0.21211895       0.03495128      -1.44425091       0.65219563
I       24.81336773       5.11647068      11.79584211      -0.01547505       0.09243369      -0.28884221       0.54118466      -0.70905549       0.67525241
I        5.73525399       0.51194654      11.82540973       0.10566887      -0.14764501       0.05588710      -0.61439841      -0.35760968      -1.74138883
I       13.47581770      19.41569663       5.53718680      -0.06630763       0.01455162      -0.20851707       0.23001508       0.21589839       0.22715187
I        7.37786851      24.24188310       5.23963737      -0.14992191       0.00446147       0.28355019       0.74780744      -0.50122992      -0.42793485
I       24.97352344      24.13140147       5.31044909      -0.12092389      -0.03701119       0.22569614       1.19615579      -0.33652982       1.10753785
I        5.77041673       6.94144889       5.54867078      -0.04508910      -0.03133496       0.22345910       0.31124916       0.97153722       0.15751309
I       13.10575562       0.82236641      11.85122891      -0.04833463      -0.05860139      -0.09243577      -0.18809236      -0.69026989      -0.99291062
I        6.89340987      17.81671250      11.65614771       0.04732791      -0.07763615       0.05841006       1.02012867      -0.82036257       0.40912838
Cs       9.44993752       1.91136109      18.62173576       0.12019438       0.11341639      -0.20433693      -1.61799099      -0.33577565       1.52352387
Cs       3.09669553      21.91598854      17.31510614       0.17101621       0.01396242      -0.11428726       0.81866336      -0.51522066      -1.28042019
Cs       3.41651468      21.98279878      23.82762365      -0.02533746      -0.07824091      -0.01125173      -0.45780962       1.29478151      -1.32479380
Cs       9.57840589       3.23516451      -0.21433626      -0.09375843      -0.26543326       0.12946812      -0.07361466       3.26308601      -0.93487056
Cs       9.59110115      20.21288404      24.35058994       0.12180750       0.06857764      -0.03680306      -0.80937695      -2.02426313       1.40601082
Cs       3.50779250       2.94203189      23.60439451      -0.18844354      -0.06885347      -0.02728450      -0.09332066       2.09434379      -0.36040887
Cs       3.42072856       4.28378741      17.82726653      -0.13791193      -0.20425424       0.26770392      -1.18224358       2.36192728      -0.38329735
Cs       9.83509014      21.24898485      18.80630301       0.03263871      -0.04657771      -0.13594561       0.29325626       2.30355432       0.74525142
Pb       0.22899769      18.33084519      21.07210651       0.03575073       0.24240578       0.13055688      -0.93628336      -4.22167149      -1.78424634
Pb       6.60361815      -0.59416425      21.07132619      -0.19934336       0.20309248       0.17067132       0.15339121       0.22581734      -1.85402124
Pb       0.17302633      -0.27887955      21.35053593       0.17717472      -0.12737884      -0.20556474      -2.55713984      -2.83495493      -1.46039492
Pb       6.48374404      18.14361936      20.83584966       0.11622880      -0.16989062      -0.03473460       0.95584496       2.72589509       1.42401770
Pb       0.13809080      18.72769443      14.94836660      -0.10868005      -0.43045199      -0.22298009      -0.51586343       0.85714306       0.76248800
Pb       6.33917603      -0.12757326      14.97604647      -0.22232235      -0.17757664      -0.14234841       0.87809648      -1.10678702      -0.34374141
Pb       0.21374033       0.06998062      15.27379138       0.08125864       0.05687425      -0.02319080       1.55840620      -2.25269625      -0.67342194
Pb       6.40329420      18.49732819      14.83372756      -0.01697670      -0.09971343       0.10524309      -0.57529160      -1.84251577      -0.60711120
I       24.86515373      21.42991852      21.61810209       0.00406720      -0.21955359       0.10050504       2.18064976      -1.15888120       1.52238263
I        6.02407480       2.60089374      20.49929904      -0.03055910      -0.07598387      -0.08832896       2.59126544       1.80402855      -2.40188935
I       13.47957162       2.71527896      20.53057018       0.07095829      -0.09447018      -0.16732661      -0.79775965       1.01303763      -1.29619789
I        6.96708548      21.18590423      21.72501414      -0.00386843      -0.10274748       0.00639998       2.55174375      -0.41520333      -3.06461511
I        9.75576213      -0.18447496      21.81042185      -0.03523906      -0.03599175      -0.14994202      -0.83315977       0.83714006       0.83221550
I        3.25041773       6.13351957      21.37346326       0.29781479      -0.09758751      -0.12434861      -1.45630153      -1.48148962       0.76438798
I        3.46917251      23.79006682      20.34057007      -0.08256618       0.16237601       0.28194674      -0.79269592      -0.33434431       0.36486254
I        9.64757785      17.70009698      20.20929707      -0.02829081       0.03080721       0.07816278       2.95762093      -0.21768132       0.93075064
I       12.19472879       2.99062268      15.75188868      -0.17155035      -0.29976408       0.09304691      -0.91086223      -0.48114007       0.47759942
I        6.01706620      21.44357195      13.91831608      -0.03999780       0.52610636       0.12397754       0.21020450      -0.59183350      -1.01687039
I        0.45255978      22.01813660       1.65524790       0.07635569      -0.03856864      -0.06734959      -0.16075638       2.08627454      -0.95597301
I        6.83237457       3.16229733       2.81458631       0.00701096       0.23961780       0.15022710       2.87983034      -1.22376404      -0.54297282
I        3.16932996       0.26078193       2.78875692      -0.07653438       0.10423159       0.01514445      -1.77089654      -1.10708515       1.89716438
I        9.66158167      18.88380602       2.88910431      -0.09398581       0.09776204      -0.00774268       0.69658388       1.18061214       0.11404982
I        9.49463967      24.25662029      14.03261992      -0.08656128      -0.03873854      -0.03536371      -0.48710334      -1.73407791       1.00098899
I        3.29662502       5.62608596      14.35949189      -0.04824147       0.04931513      -0.03909058       2.28513078      -1.71553172      -1.42455087
I       24.65703110       5.13653961      23.99704327      -0.04233817      -0.01355874       0.24003445      -0.31617700      -2.44286029      -0.60453575
I        6.08223808       0.19929228      24.18263575      -0.02954969      -0.04476086      -0.05322216       2.12043320      -0.12656203       0.05203556
I       13.29733034      18.93128939      18.12233031      -0.00353982      -0.01101486      -0.31841839      -0.22090241      -2.36012105       1.84408467
I        7.29159378      23.84126722      17.83196942      -0.07100426      -0.05948502      -0.26115152       0.34723128       0.21627364       0.39013066
I       24.67727070      23.64045765      17.91401301       0.03311545       0.09283620      -0.05413266       0.98708109      -0.85311668      -0.45323747
I        6.30107348       6.80815693      18.01136859      -0.13607575       0.00165280      -0.08091297      -0.59129642       0.00000783      -0.50793076
I       13.53852496       0.28073255      24.16488837       0.00487279      -0.05501201       0.39998668      -0.25679871      -0.59302823       0.69777094
I        7.27766676      17.13018649      23.95150423      -0.13483080       0.06295728      -0.16384836       1.58852061      -1.18079185       1.08774304
Cs      22.26877903      14.88663403       5.27480639      -0.02693843      -0.10680011       0.42277557      -1.37123410       0.17844048       2.38240072
Cs      15.72624697       9.55177545       4.93656389       0.09801100      -0.03211679      -0.05102970       3.23126437      -0.31930913      -0.37017930
Cs      15.69306671       9.67007729      11.07452141       0.03796342      -0.03349039       0.11162864      -0.87897688      -0.13809885       3.69793733
Cs      21.99072223      14.92027742      12.20475613       0.13510751       0.16273987      -0.06306939       3.27393470       0.68878340      -0.86825793
Cs      21.89231468       8.25191937      12.09557290       0.16945473       0.11080929      -0.23744881      -0.80585337      -1.46507632       1.52830680
Cs      15.70973644      15.86048967      10.99779386       0.07125391       0.13992076       0.04697096       0.19110577       0.74040228       1.01120047
Cs      16.10388997      16.31911557       5.20030263      -0.00530248      -0.00811914       0.03289935       0.17787121       0.86905505       1.22856713
Cs      22.19068220       9.19175419       6.23570384       0.02750007      -0.02613148       0.06062775      -1.27863673       1.07935670       1.58737882
Pb      12.64748879       6.17181681       8.64852362      -0.35251996      -0.13903430       0.30523736      -0.55725989      -0.50259098      -1.79955009
Pb      18.98868378      12.57803915       8.75482038       0.26790196      -0.16421855       0.10353060      -0.02816300      -1.32307324       0.47964211
Pb      12.92352897      12.35755739       8.53472252      -0.24701048       0.02443102       0.27387452       0.66210691       1.75860514       2.62354118
Pb      19.00393198       6.21987687       8.67986813      -0.04893588       0.05394035       0.17767728       0.79962884      -2.25726338      -0.23879770
Pb      12.53695038       6.35054058       2.58146426      -0.03529545      -0.11385366      -0.15884899       2.32342019      -0.60587573       2.91998905
Pb      18.94442857      12.45729984       2.73461935       0.11086182       0.15861828      -0.43554213       2.24275187       1.58434235      -0.06004316
Pb      12.68652987      12.59337496       2.64563323       0.02912898      -0.16105669      -0.35215588       1.79748180      -2.21025057       1.19780273
Pb      18.89274931       6.50728700       2.43034505      -0.01893516      -0.10985544      -0.20290224       4.26607218       2.52244793       0.47780025
I       12.25637117       9.28031861       9.69600774       0.08018775       0.11042377      -0.28739006       1.61888602       1.38181071      -1.62299726
I       18.71288192      15.58079448       8.05117033      -0.11565360       0.05585016      -0.11865986       0.98848692       1.11544229       1.03568246
I        0.42801525      15.53724434       8.14896017       0.18699473       0.10966126      -0.19349574       1.21737687       0.27241019       1.91470023
I       19.21393994       9.28742254       9.55437687      -0.00097207       0.19973055      -0.17112870       1.26003764       0.62866041       2.27771139
I       22.13711370      12.94282229       8.82659359      -0.11418153      -0.06974270      -0.02699603      -0.21999870      -0.28945919       0.81914660
I       16.07519906      19.29106900       8.98302306      -0.43942407      -0.01329593       0.03197751      -0.22944413       0.49285349       2.70543760
I       15.79448733      12.11510111       7.88286907       0.21904132      -0.08639148       0.00537938      -1.24482975      -1.02941007       0.06240682
I       22.01930163       5.74184756       8.37617050       0.11278983       0.00712772      -0.13895167       2.26454793      -2.05009725       0.83728477
I       24.62062971      15.72378245       2.87600311       0.25695203       0.02323612      -0.07541043       2.22387409       0.42947613       0.75361971
I       18.57100247       9.46703777       1.65451461      -0.12328615       0.15959282       0.04023948       0.20675638      -1.20638588       0.66925774
I       13.15126310       9.01447092      14.05599881       0.06874299       0.16094953       0.00765764       1.15886622       1.60410162      -2.44522764
I       19.41662856      15.06377683      15.49277948       0.02398923       0.46165325       0.03718829      -0.73370808      -0.80662356      -2.54409925
I       15.87939594      12.43768375      15.49781765      -0.15198451       0.21784389       0.04270013       0.47988774       0.35163586      -1.73541488
I       22.13182375       6.69823774      15.28946614       0.01408513      -0.16471964       0.05112011      -0.42562264      -1.92868445       0.51104765