320
Lattice="35.78794042575779 -0.37839846603646177 -0.24217113649280456 0.2257959835333163 21.00955516298944 -0.015306901360210465 0.11054213265190213 0.01896394099226511 19.312856914076352" Properties=species:S:1:pos:R:3:forces:R:3:momenta:R:3 energy=-989.2837243662898 stress="0.0 0.0 0.0 0.0 0.0 0.0 0.0 0.0 0.0" pbc="T T T"
Cs       7.01988621       3.75539428       5.95419786       0.14892585       0.08992453      -0.01921271       1.93950863       1.83638698      -1.54671240
Cs      13.58692616      12.58918823       3.76900942      -0.00859265      -0.03256519      -0.23433026       0.73750387      -0.31070574       0.28705602
Cs       4.47452286       9.10911577       6.13254348       0.11227348       0.08894855      -0.03108765       0.72713662      -0.96669668      -0.71410905
Cs      16.03151834       7.26258417       3.43617188       0.21447991       0.04115283      -0.09541825      -1.26121126       0.91845167       0.08981547
Cs       7.29726290       3.96914577      10.77052396      -0.03670396      -0.06270281       0.06001424      -0.30311739       0.13506372      -0.95337469
Cs      13.66525213      12.39802120       8.22283196      -0.12375508       0.09745200       0.10136986      -0.74252536       0.84557901       0.07938430
Cs       4.53664891       9.33283494      10.98818883       0.04224272      -0.19430343      -0.12894530      -0.14895953      -0.04677581      -2.02846550
Cs      16.13713000       7.16277517       8.21452840      -0.05106631      -0.09396886       0.03192126      -0.97366570       1.74595503       0.23622195
Pb       2.35673823       4.80630542       3.41864459       0.04178677      -0.04328753       0.04484168      -1.54826340      -2.12770137      -1.29772606
Pb      18.26807552      11.69018893       6.00126742       0.02221622       0.04487079      -0.27007495       0.80024984       1.19495921       0.72504904
Pb       9.49981960       9.86141929       3.65338619      -0.22977589      -0.13508943       0.05367293       1.13878613       1.82429798      -0.60955990
Pb      11.36359049       6.51395315       5.98024446       0.12485110      -0.19442046      -0.16070902       2.17071488       2.27393159       4.94529933
Pb       2.58904608       4.67296348       8.28085446      -0.27371129      -0.10571020       0.25939640      -3.23847392      -0.53779141       1.56115277
Pb      18.15861973      11.66011190      10.58857442       0.49951497       0.30127119       0.40957696       2.84909932      -1.95726386      -2.35964973
Pb       9.42032485       9.95728772       8.67452377       0.03861482      -0.35230152      -0.61123262       2.70193836       3.51379719       1.70310899
Pb      11.32545595       6.48583826      10.83995006       0.42937299       0.01203556      -0.29729456      -0.91930692       0.55172373       2.32427250
I        1.64507094       6.69581212       6.03103705      -0.29492303      -0.04939803      -0.15458668       0.22867563       1.78091989       0.22328514
I        1.54461119      10.02824922       3.59261136      -0.05880844       0.20049585       0.02021458       1.33648416      -0.88580036       0.08341533
I       10.59318369      11.70284024       5.98653093      -0.13141923       0.02158743       0.23034020      -1.13433805      -2.25668305       0.00990890
I       10.13671207       4.58325841       3.59558524       0.07301862       0.05872784      -0.10425712       0.59148581      -0.45699876      -0.13769265
I       17.35095346       3.24741172       3.18706185      -0.09251751       0.03366961       0.20777658       1.41162114      -0.76599134      -0.88405547
I        3.47463739      13.29106394       6.00692821       0.20947398      -0.34069819       0.04104456       0.83747633      -0.60539334       1.00565283
I       12.38717149       8.36651486       3.51340926       0.09433391       0.12819339      -0.02566852       0.42867039       0.33786381       0.94697632
I        8.46431010       7.75807778       5.94427039      -0.07534929       0.29983204       0.26801118      -0.58274088       1.92839006       0.09393276
I        5.07790753       6.24831156       3.52393339       0.06325313      -0.02875117       0.10500917       0.82671297       2.37851021       0.33793014
I       15.51183423      10.11135675       5.83111474       0.17941075       0.13690097       0.09723297      -0.04427457       0.18739676      -1.48053795
I        6.68340906      11.22603084       3.71914523      -0.09966550       0.13894318      -0.03093542      -1.00644112       0.94335442       1.60089315
I       14.18503579       4.98003821       5.59871352      -0.05392023      -0.03295845       0.32474353      -3.51544214       0.18966752       0.65967443
I        1.59315997       6.52437561      10.73959446      -0.23731294       0.27656531       0.06843126      -2.13859807      -0.08118851      -0.21079897
I        1.39880674      10.04876067       8.46781157       0.10603669      -0.04111038      -0.31288531       0.86367945      -1.55313838       1.22870459
I       10.52632693      11.87036343      10.69626813       0.08175403      -0.11550443       0.21329690      -1.83635624       1.14178775      -0.36522849
I       10.41952074       4.61070399       8.36281399      -0.19219900       0.00052979       0.11426280       0.98543160      -0.02067513       0.17602193
I       17.34028240       3.01317225       8.39930190      -0.32226816       0.36732704      -0.15761213      -0.66469219       2.27388242      -0.55956525
I        3.58590323      13.02705387      10.73415967       0.00149527       0.46215515       0.22077255      -0.14334722      -0.52110201       1.99123717
I       12.31161085       8.51463327       8.13628355       0.21073046      -0.02478603       0.38423285      -0.51926465      -0.36296429      -0.31195138
I        8.26642117       7.76690040      10.87847935       0.13077989       0.26383205      -0.09848352      -0.84863575       1.34513087       0.36344299
I        5.19622891       6.09987962       8.32808281       0.38304221       0.27046288       0.14758871       0.82692564      -2.05822632       0.85264342
I       15.50833837      10.25217491      10.71182127      -0.26229919      -0.14030201      -0.04157934       1.46103326       2.36975827      -0.10795924
I        6.80130334      11.48383644       8.53739773      -0.42296441      -0.08987802      -0.11479634       1.10767572       1.06979953      -1.61246074
I       14.04540208       4.84266605      10.56974357      -0.03128625       0.22513798       0.17054321      -2.06000385       1.13573756       1.48803732
Cs       7.18039127       3.87697456      15.70519692       0.11216423      -0.09036434      -0.03629091       0.63221826       2.03932115       1.87296433
Cs      13.72849082      12.52884163      13.18319662      -0.04793466       0.09007694       0.02734018      -1.49625689      -1.46381420      -0.46227708
Cs       4.61011509       9.28988609      15.57604829      -0.02489902      -0.07552355       0.23614780      -0.66498845      -1.52210591      -1.61767969
Cs      16.22511299       7.36575240      13.01911028      -0.01885334      -0.10742404       0.00045441       1.91879928      -2.23209802       1.95577278
Cs       7.15585203       4.03966810       1.38906356      -0.01791170      -0.10039354      -0.25675830       1.29188254       1.34229832       0.32602990
Cs      13.38349011      12.61347042      18.18530195       0.10842266      -0.03803784      -0.12192248       0.01973519      -0.62664719      -0.22076083
Cs       4.62742121       9.22259563       1.22753300      -0.12913709       0.04376317      -0.10384210       0.21664202       0.63198089       0.22079890
Cs      16.26565227       7.38737509      18.05493928       0.03004527      -0.03722549       0.08725921       0.97058136       0.20484093       2.22002834
Pb       2.57436941       4.76169515      13.22275128      -0.05100361       0.17835565      -0.02022968       0.62501459       2.10400282       1.50087616
Pb      18.38276971      11.63056622      15.62105742       0.11011016       0.24383139      -0.09582101       0.56676772       0.57081542      -0.71484017
Pb       9.48934850       9.83183883      13.26688133       0.04742831       0.10752434      -0.05543259       1.32986889      -2.09347628      -4.41140478
Pb      11.72509054       6.49792119      15.69579464      -0.22532486       0.04708759       0.02870101       4.13234451       2.00698152       0.08568660
Pb       2.60290841       4.88578413      18.02561792       0.10042076       0.12890230      -0.09625672      -2.21954454       2.81485292      -3.34878068
Pb      18.38479101      11.70614261       1.03381961      -0.18126945       0.06652477       0.15121595       1.08971619      -3.16492176       2.01488529
Pb       9.48944524      10.00648181      18.06840554      -0.31783979       0.11166024       0.05276636      -0.36874701       1.57767663       1.53870242
Pb      11.26252012       6.34785053       1.17379002       0.13818854       0.15796090       0.02656444      -0.68450926       0.93648245       1.05796069
I        1.36343667       6.76633322      15.68488928       0.14584826      -0.11656773      -0.12225076       0.79097367      -0.06438819      -0.17027294
I        1.56747357      10.10850135      13.33167280       0.06674630      -0.30716774      -0.17821297       0.70549718      -2.07452191       1.91559232
I       10.45959531      11.84654823      15.49730156       0.10499084      -0.00804072       0.13974394      -0.43299590       1.25584139       1.59066529
I       10.38311722       4.76711786      13.08129723       0.00940488      -0.14770595       0.34125555      -0.37635167       2.93990596      -2.06870280
I       17.09873667       3.21579315      13.25632177       0.34715554       0.03854358      -0.22611669       1.85674366      -0.74733531       2.13784945
I        3.57614789      13.38196711      15.43957853       0.13903319      -0.16142804       0.32212234       1.75340361       0.93592894      -0.56054466
I       12.61884570       8.43345378      13.26290485      -0.10666378       0.09906648      -0.05958257       0.08654710      -0.01184357       1.80360544
I        8.65610848       7.96515721      15.58224821      -0.13617824      -0.04970411       0.11868033       1.24791449      -0.73996540       1.27320675
I        5.41505167       6.13839140      13.32632241      -0.19105419       0.08842971      -0.06716873       0.02244599      -0.95917331       0.37551259
I       15.67590840      10.37695342      15.68408587      -0.24398324      -0.19836141      -0.02783626      -2.03897839       1.89235151      -1.03979059
I        6.85844445      11.36994111      13.46303810      -0.11163373       0.12285626      -0.23280999       0.92495460      -2.56597208      -1.16041525
I       14.40324269       5.06397705      15.63000822      -0.01185187      -0.05456405      -0.01829490       0.81846712      -1.59367329      -2.65268013
I        1.40151590       6.83066672       1.02681381       0.00010871      -0.20296960       0.18879598      -1.60361853       0.29331012      -1.05352684
I        1.40545600      10.18946152      18.21212216       0.19470486      -0.07052907      -0.34519933       0.47054318      -1.44941537      -0.97487485
I       10.51985912      11.70225740       1.27419471      -0.02142810       0.13295916      -0.16577946      -0.05881945      -0.34086949      -2.06107946
I       10.31933179       4.67111304      18.08993344       0.00073693      -0.01450340      -0.19294356      -2.45861248      -0.27174156      -0.30786821
I       17.18578356       3.05432761      17.83227398       0.27327048       0.33850970       0.11404643       1.56679153       0.63999524       0.26161664
I        3.48473135      13.20558513       1.23315039       0.10013904       0.07057035      -0.06768455      -1.29820222       1.88373786       2.07438260
I       12.46319574       8.66731971      18.08198093      -0.02433370      -0.35716332       0.00770145       0.81926025       1.58483784      -1.84138492
I        8.22866285       8.06160824       1.20324630       0.29647355      -0.14787848      -0.13942757       1.49762801      -0.72171475      -1.61791438
I        5.40141679       6.35057537      18.02969941      -0.06941886      -0.06508968       0.00154821       1.26075005       0.90321456       1.31754553
I       15.54945142      10.42522111       1.09301053       0.01738252      -0.11891973       0.00696017       1.09693368      -3.07686580      -0.35917228
I        6.70280923      11.56230500      18.14464955       0.13633984      -0.07387835      -0.13023183      -0.39517175      -0.15909032      -1.65400553
I       14.05980903       4.89469395       1.17478643      -0.11507199       0.21932073      -0.18668637       0.93496702       2.22133158       0.59626830
Cs       7.30285430      14.10908451       5.92248209       0.17293790       0.20521179      -0.05682140      -1.32674057      -0.70190305       1.59283585
Cs      13.38706357       2.12453475       3.47158806      -0.06477275      -0.09020182       0.04983026      -0.07827856       1.16827323       1.90040686
Cs       4.75709532      19.60784843       6.09720935      -0.10569865       0.07291711      -0.12385706       1.12845268      -0.20625844       0.12705328
Cs      16.27631527      17.73345029       3.49098738       0.04741635      -0.00564269      -0.07657477       1.10482407      -0.54349587      -1.40882713
Cs       7.36139824      14.29825213      10.55849730       0.09459732       0.06739272       0.33654276       1.16426060       2.10120514      -0.27514493
Cs      13.23205780       1.99164733       8.28737828       0.28245469      -0.05317614       0.05564895       0.94338803       0.88604335      -0.28240664
Cs       4.80210094      19.43358944      10.62906745      -0.14249765       0.07300600       0.21680010       1.10481530      -2.03406443       3.50377719
Cs      16.20348983      17.86019247       8.18941596       0.15622456       0.06461115       0.21298158       0.20917607      -0.52394887       1.09040662
Pb       2.52057091      15.29403786       3.73599793      -0.40130110      -0.20918777      -0.40298073      -0.05578139      -0.66678805       2.70219057
Pb      18.11413863       1.21519239       5.83531167       0.14970672       0.02524076      -0.30661033       0.78019679      -0.61404486       0.38417732
Pb       9.46487532      20.28124250       3.76218983      -0.06326012       0.28479670      -0.43781634      -1.49602274       1.72473777      -1.56384640
Pb      11.66172225      17.00858164       5.92120567      -0.15378628       0.14662814      -0.01512848       1.09444889       1.56799248       1.35530865
Pb       2.61830869      15.16277414       8.38312643      -0.03150020       0.10668435       0.29274772       2.10607403       0.58457398      -1.88881975
Pb      18.07741994       1.08692078      10.79299077       0.23508933      -0.04164371       0.36732351       0.47541039      -0.93155190       2.37383049
Pb       9.29008592      20.48218502       8.40899383       0.14052043      -0.34923421       0.08242579      -0.20387700       2.53634374       2.17026150
Pb      11.61885777      16.95643300      10.77403164       0.01570585       0.03339393      -0.12632353       0.05561147       0.34953870      -1.61647035
I        1.41530714      17.01507121       5.98633581       0.03378592       0.27663360       0.29795512       0.59984243      -1.52037821       0.75669405
I        1.76993050      20.47658100       3.63071598      -0.18343432       0.28908511       0.02855542      -0.37318146      -0.85539337       1.13493782
I       10.37534721       1.28712559       6.11438343      -0.20448195      -0.11729104      -0.12475303      -0.03706123      -0.84214128      -0.21685554
I       10.61306287      15.20082194       3.36065162      -0.19117100      -0.12974966       0.43008399      -0.13612615       0.10667921      -1.27771334
I       17.31515020      13.66657450       3.45570840       0.17521583      -0.10193936       0.10344752      -0.89286379       1.40945671      -0.80911170
I        3.37329563       2.79818794       5.94836588       0.07725165      -0.17314731      -0.29593713      -0.28309865      -0.91538174       1.92904373
I       12.54106925      18.99522570       3.37186928      -0.00034858       0.13528280       0.27473934       0.62612914       0.87288884       0.02421564
I        8.51300885      18.25985829       5.85510444      -0.09865491       0.07704180       0.18390679      -1.42179218      -0.55700307       0.80240101
I        5.14318367      16.56297061       3.51175826       0.56605414       0.26287752       0.23375745      -0.92627052      -0.71389225       0.59604164
I       15.60396517      20.79656618       5.76835415      -0.09656989      -0.00051949       0.08526648      -1.70137754      -0.99978123      -0.94971077
I        6.49636775       0.85075000       3.45023941       0.06875819      -0.11380588       0.21553771       0.30479947       0.78154614       0.33815090
I       14.28926368      15.50048734       6.08720105       0.15873509      -0.02749261      -0.11729589       0.90000238       0.80990954      -2.68457093
I        1.43052114      17.10445199      10.75737162       0.15020708       0.04966871      -0.01172205      -1.39097650      -1.81817824      -1.01184672
I        1.50749656      20.51655959       8.48763928       0.09304663      -0.06579740      -0.05356164       1.80413531      -2.27520874      -1.20505702
I       10.23044542       1.22808422      10.72346473       0.04647186      -0.01918658       0.16222387       0.84598144      -0.89586350       0.62509766
I       10.45924811      15.23979614       8.30353260      -0.00215433      -0.14906660      -0.08994176       0.49660468       1.83351797      -0.06460211
I       17.38157027      13.79336465       8.27823044      -0.10211887      -0.01791468       0.04815402       1.07072125      -1.51690175      -2.10625794
I        3.49773554       2.63876431      10.84371396      -0.10983502       0.14145799       0.05308845      -0.82308628       0.18424216       2.27016396
I       12.38824596      19.15364333       8.41373372       0.06270794      -0.12940801      -0.15335863       0.02083084       0.70520770       3.85559789
I        8.54461735      18.20174307      10.86654765       0.07426860       0.32270294      -0.03712978      -1.53687491       0.06798949      -1.82615295
I        5.41387615      16.60472942       8.33643717       0.05332611      -0.01949954      -0.07930719       0.80209604       0.11054267       1.44695066
I       15.62092815      20.61850507      11.13871501      -0.13870815       0.02646265      -0.37160451      -0.65854931       1.01782723       0.84859494
I        6.39948238       0.99371519       8.52955685      -0.07071713      -0.02878946      -0.13105655      -0.10690080      -2.45307955      -0.97061002
I       14.34983218      15.43864341      10.67006880       0.03223148      -0.00694982       0.01371706       1.38928364      -1.45627733      -1.90737066
Cs       7.42648753      14.62277243      15.58913117       0.12742434      -0.16118517       0.17637099       0.35774936       0.15428841       2.31968955
Cs      13.47367736       1.98951007      13.24284819      -0.08572728       0.07616209      -0.01093675       0.40093017      -0.04209170       0.65547451
Cs       4.92019955      19.68988227      15.57349414      -0.19511098       0.00907441       0.12588456      -1.50346071      -1.62678471       2.42242917
Cs      16.45425461      17.47990833      13.24811200      -0.06253159       0.13312270      -0.04500530      -0.01610988      -0.04026650      -1.54743299
Cs       7.29078366      14.35918638       1.36768930       0.12181053      -0.06843349      -0.16203424       1.29318092      -0.26505218      -1.65616832
Cs      13.43463639       2.06852403      18.00665716      -0.02173857      -0.01573252       0.01275683       1.33129375      -0.26200531       1.42979396
Cs       4.56448767      19.52916727       1.30600207      -0.00554294       0.17068474      -0.15572957      -0.09591337      -2.89874994       1.60769328
Cs      16.47122227      17.77500863      17.90227662      -0.10710332       0.04126586       0.22153167      -0.71423569       1.47023493      -1.67130492
Pb       2.75234973      15.37610918      13.22232768      -0.40627760      -0.21322125      -0.21427965      -0.31245680       0.88278073      -0.80432466
Pb      18.20211120       1.18498787      15.49809777      -0.01091336      -0.43918901      -0.09524535       0.68756270       1.88826620      -1.14722582
Pb       9.50429003      20.38034239      13.28881394      -0.27244538      -0.07361531       0.00593306      -2.97579071       0.07590731       1.46005088
Pb      11.68338941      17.10558263      15.55868605      -0.28455779      -0.06361316       0.25934504      -0.12886051      -1.54718594      -2.17600634
Pb       2.77747682      15.22167976      18.12955191      -0.40048472       0.14523283      -0.08242902       1.01212028       2.58350856      -1.91777651
Pb      18.13332197       1.13734030       1.00985349       0.02638874      -0.15464738      -0.16739690      -1.55212842      -0.34513587       2.36307497
Pb       9.64251356      20.64196819      18.29190747      -0.38873518      -0.15827626      -0.17957041      -3.05603036      -1.06185864       1.42583054
Pb      11.53675867      17.01671655       1.03640481       0.09077299       0.06248878      -0.09924936       0.61582916       0.37591650      -0.48846506
I        1.37005914      17.15683332      15.62613760       0.47238540      -0.24340808       0.04651143      -1.27438048      -0.97318331      -1.23852560
I        1.80147974      20.64633341      13.30495409      -0.04077658      -0.21653065      -0.10816880      -0.33817449       3.27263098      -0.25919849
I       10.41498431       1.34583599      15.60569758      -0.08640265      -0.04991089       0.01219302       1.87251740      -0.04277660       0.00322154
I       10.66231952      15.17463805      13.17784303      -0.22881294      -0.13230622       0.03302105      -0.75485401      -1.76049182      -0.15404625
I       17.68803261      13.76499738      13.25925399      -0.34573760      -0.15074207      -0.08243987       1.23932687       0.35373835       1.06610696
I        3.40077382       2.87023065      15.51749960       0.09712619      -0.28455201       0.29524394       0.93316257      -1.04440465       0.53083927
I       12.50857369      18.96019260      13.14969477       0.19653111       0.17410479       0.01333104      -1.17197110      -0.22601534       0.39343057
I        8.41055146      18.57818497      15.90067371       0.43502598      -0.05576118      -0.24547060      -1.19633022       0.70284234       0.01998409
I        5.54425464      16.53741605      13.31566754       0.07304832       0.28938930      -0.19441225      -0.56570868       0.32879987       0.72440190
I       15.65400771      20.73961353      15.67533552       0.09412035      -0.00582584      -0.15591157       2.08068758      -0.77564625       1.13754918
I        6.52695684       0.82283236      13.06882303       0.07311381       0.07161169       0.05108145       0.35261535       0.32961768       0.02892414
I       14.27938088      15.46528658      15.73208263       0.03066348       0.00977662      -0.07647293       1.30480122       0.00875367       1.07835504
I        1.43532664      17.06844661       1.24103444       0.05093153      -0.07315800      -0.16118075       0.36249962      -0.25794602      -1.38982690
I        1.70021477      20.50179186      18.16149145       0.01033286       0.07182453      -0.02548294      -3.49910428      -1.43090640       1.51546165
I       10.27951309       1.39081602       1.24738345       0.04160014      -0.08676845       0.18823410      -0.09869335      -1.82457683       1.23546026
I       10.50352132      15.24787457      18.06875482      -0.15370368      -0.14445924      -0.16655771      -1.62388125       0.27938060      -0.14227753
I       17.41788524      13.72229460      18.12236088      -0.00935862      -0.09957984      -0.30364888      -0.57871978       1.03621611      -0.35371578
I        3.43076292       2.75601229       0.99577421      -0.09920737       0.07741000       0.23672855       3.56665690       1.57541336      -1.22277128
I       12.66394044      19.09450596      17.95929068      -0.09145434       0.06277055       0.00784660       0.23201814       0.47005263      -0.16524832
I        8.35500298      18.41860107       1.23333229       0.27516665       0.14476594      -0.02930266       3.06693709      -0.82775208      -0.74439455
I        5.39202230      16.73013124      18.20950447       0.11076356      -0.02860008      -0.08728078      -0.48832472      -0.51461839      -1.46107107
I       15.50483056      20.91573244       1.15301399       0.08166313      -0.23465705      -0.07737980      -0.41878726       0.38012258      -0.87285950
I        6.50877613       0.95159673      18.15391722       0.23000147      -0.03602528       0.04969312      -0.26919301      -0.97824016       1.20996895
I       14.21258750      15.41708750       1.07658024       0.00469516       0.17152303       0.04980873      -0.41974733       0.51442989      -0.30584176
Cs      25.41287006       3.58369720       5.68065476      -0.20038077       0.07943261       0.13970822       1.64893504      -1.16122609       0.46167927
Cs      31.27360649      12.53237823       3.26315361       0.06066598      -0.08885405       0.06262802      -1.05313400      -0.94093282      -1.70561366
Cs      22.34053220       8.94703689       6.00565111      -0.03009295       0.06096710      -0.09949935      -0.39625138      -2.64639002      -0.66821043
Cs      34.12448760       7.19690261       3.30510168       0.05674454      -0.02825750       0.07115309       0.70743259      -1.63801341       1.77536867
Cs      25.07485803       3.58595484      10.63503197       0.05181401       0.09575590       0.02098039       1.48283580       0.45835395       1.85922945
Cs      31.32321617      12.26136929       8.16357142       0.19341250       0.09189936      -0.08126294      -0.64730301       1.23415508      -0.24161109
Cs      22.46677870       8.83351152      10.80990339      -0.02002618       0.05325996      -0.21316287       0.36867778       2.40822444       1.32346872
Cs      34.15323731       7.25114044       8.12576186       0.09587900       0.04246662      -0.04556203      -0.14688993       1.04362579      -0.73989658
Pb      20.39824270       4.65540020       3.31667954      -0.02178546      -0.30473391       0.07968338       0.24398247      -0.39917469      -0.01246669
Pb       0.39863745      12.06309630       5.91419120      -0.24022670      -0.39222982      -0.10260287       3.76389360       1.21702534      -2.29591802
Pb      27.13986705       9.91341357       3.30936420      -0.14387914       0.08216977      -0.02745696      -0.66413337       0.17411153      -2.08098086
Pb      29.36843302       6.49345300       5.74701216       0.11196468      -0.37070905       0.25330644      -3.55991608       2.05449208       1.44744833
Pb      20.30373021       4.51429117       8.17131050       0.22354547      -0.15845581       0.15337082       0.81393497      -0.24853000       2.79584435
Pb       0.46675255      11.80699869      10.86376049       0.17624128       0.39008721      -0.05584787       1.84707944      -0.26528154      -0.22304007
Pb      27.13186751       9.77217155       7.97146866       0.00948247       0.04203411       0.12514281      -0.23755683       0.96218135       1.90300418
Pb      29.44560038       6.35629607      10.70489311      -0.08372150       0.10237707      -0.35090958       1.67605889      -3.53672427      -0.55272121
I       19.24210140       6.38577097       5.76904833      -0.11430856       0.09141645       0.17410373       0.32200873       0.05751787       0.43433034
I       19.32188248       9.93624703       3.53296431       0.11189023      -0.23333022       0.07033795       1.79596184       0.19752863       1.46459404
I       28.28420894      11.82881880       5.65632449      -0.06662565      -0.28377173       0.20702935       0.98766893       2.90717601       0.54851543
I       28.21711065       4.48173679       3.42042360       0.03018126       0.11598849      -0.12142371       0.36463287       2.50437621      -1.31843012
I       35.00657784       3.07750268       3.36585561       0.18084807      -0.04135445       0.11436859      -0.94899945      -1.26674697       0.37074027
I       21.48213118      12.98783622       6.02082615      -0.28789242       0.00392465      -0.15626329      -0.64268934       1.42793687      -2.22977954
I       30.16319007       8.36812875       3.38734439       0.02978702       0.14805936      -0.12317000      -1.33060691       3.05529985       0.52708915
I       26.26924385       7.74834641       5.66445091      -0.03871941      -0.03669336      -0.02904242       0.54678683      -2.21407086       1.17294402
I       23.12023848       6.07850857       3.46890119       0.18655042      -0.02485444       0.04724538       0.09254842       0.18080515       0.14814485
I       33.36089819      10.22440027       5.55761829       0.19515330       0.05196664       0.15810469      -2.22568777      -0.44029401      -0.59508859
I       24.32505356      11.36982495       3.47251701       0.24833190      -0.15579619       0.06761167      -0.64936618       1.26486553       0.12260635
I       32.16028475       4.95199579       5.90404234      -0.20673315       0.12771128      -0.15818040       0.92278325       1.75449841      -0.82654485
I       19.28598144       6.47636198      10.69847399       0.03395842      -0.19210023      -0.08173466       1.72286044      -0.84634379      -0.59558835
I       19.06085419       9.63298621       8.46369747       0.24948352       0.03712061      -0.28134647       0.85487639       0.12630134      -0.15182614