320
Lattice="35.78794042575779 -0.37839846603646177 -0.24217113649280456 0.2257959835333163 21.00955516298944 -0.015306901360210465 0.11054213265190213 0.01896394099226511 19.312856914076352" Properties=species:S:1:pos:R:3:forces:R:3:momenta:R:3 pbc="T T T"
Cs       7.38403563       3.14467266       6.32919581      -0.01545443      -0.16372316      -0.03268628      -0.54995310      -1.14071378       1.32959114
Cs      13.58592211      11.38657664       3.77631687       0.08844943       0.23820640       0.07867585       0.01537256       1.93724789      -0.68838697
Cs       4.70801595       8.25534623       6.36905909      -0.04942795       0.08114375       0.11655856      -0.38436488       1.29438711      -0.43978203
Cs      16.03036727       6.28891048       3.94970779       0.22899679       0.11816527       0.09458584       2.51360014       1.93452458      -0.97079151
Cs       7.59099779       2.92681707      11.24619608      -0.12074666       0.10314035      -0.01229095       0.42931223      -1.11772120       2.24891366
Cs      13.43870162      11.46238905       8.69007513       0.14007240       0.14642949       0.11128793      -0.25245218      -0.34295556       2.92644183
Cs       4.70013234       8.46409756      11.38829176      -0.16969454      -0.12994910      -0.25926676      -0.33873696      -2.67025013       1.39689382
Cs      16.30086202       6.53463813       8.84450851       0.02429581      -0.10159279      -0.14198283       0.03233956       0.04755170      -0.46212592
Pb       2.59216800       4.01013288       4.05448683       0.07857849      -0.06736996      -0.07432609      -2.75350237      -1.61002852       0.70552497
Pb      18.39028751      11.01115554       6.24746928      -0.08615269      -0.28355553       0.20111568       2.25090503       1.00635097       0.59757312
Pb       9.33231930       8.96229492       3.82010432      -0.03900144      -0.04124570       0.19070813       1.21259024      -1.11072509      -1.62348076
Pb      11.60289673       5.51241410       6.06839462      -0.12353581       0.08341635       0.22032071       2.12807441      -2.73668002      -2.35302286
Pb       2.56134856       3.97834335       8.91167169       0.22401963       0.09096334       0.06620668      -1.47358707      -0.77479634      -1.72755529
Pb      18.43606887      11.01068822      11.02774896      -0.02324647      -0.15619975       0.04074335      -2.99527553       1.03017190      -0.55568364
Pb       9.30195515       8.91923459       8.75341804      -0.03430813       0.15819463      -0.14289669       1.93975242       0.20345495      -2.18127088
Pb      11.49242897       5.71784946      11.02845213       0.03588645      -0.15285889       0.10861324      -1.33591397      -0.93796171      -2.57378268
I        1.56660229       5.83485527       6.42245326      -0.10048772       0.09809996       0.09094544      -1.64097768       0.85468472       1.96724107
I        1.41638104       9.37513382       4.00728635       0.13183666      -0.19798858      -0.01518036       1.78629247      -1.39536970       0.30912080
I       10.63679941      10.66632547       6.26714214      -0.23989789       0.09896884       0.08509560       1.60447269      -2.33380038       0.92442631
I       10.62758339       3.56423586       3.95277984      -0.18003322       0.08695083      -0.39075305       0.71091208       1.47243741      -2.25837096
I       17.35421483       2.50719502       3.91387377      -0.01444274      -0.07124975      -0.00259525       2.38807227       1.05016656      -1.76524021
I        3.57301392      12.44610041       6.44285539       0.02867695      -0.01539466       0.17558408       1.07490426       0.11569337      -0.11594290
I       12.44660698       7.81380241       3.79245162      -0.02847344      -0.35515849       0.04855219      -1.31489422       1.76042654       0.21511897
I        8.57475581       6.99149261       6.33330040      -0.26723892      -0.12771676      -0.10700307       0.02842415       1.68293718      -2.55844572
I        5.40771246       5.40216341       3.79794024      -0.07076962      -0.10385379       0.14095640       1.32402102       1.02276928      -0.41719869
I       15.65170557       9.37105429       6.35975108       0.08882665       0.09478427      -0.02727962       1.57780930      -1.52488613      -0.40481778
I        6.62686390      10.50791909       3.85378747       0.08603012       0.12819170       0.21914154       0.88867386      -0.47223263      -2.48994469
I       14.15800802       3.89961634       6.37746991       0.26696127       0.06142397      -0.00544763       1.53447364      -2.19765154       1.14104486
I        1.45189705       5.86902507      11.46902949       0.06766180      -0.04432145      -0.30474703      -1.76091630      -0.43944337      -0.81022222
I        1.59035084       9.10679513       8.90530018      -0.06038590       0.33514676      -0.15851898       0.23468494      -2.28422511       0.83035938
I       10.56847611      10.67085199      11.13166474       0.08482534       0.27127639      -0.04882232       0.64879654       0.96986729      -1.68758111
I       10.35562816       3.81701757       8.70545561       0.12741347      -0.03105887      -0.08855254       1.14750713      -3.15425440       1.07843993
I       17.31999894       2.52550776       8.68185584       0.02099839       0.01472424       0.05993075      -0.61836334       0.76376608      -0.93196235
I        3.67806214      12.42922452      11.31512887      -0.13770523       0.05555989      -0.12745745       0.66487943       0.64819742      -0.10624350
I       12.31778841       7.55154276       8.53019180       0.24343130       0.12717498       0.26950764       0.08117537      -0.05105052      -0.03081366
I        8.37954007       6.87577548      11.14184785       0.01462268       0.10819653       0.01553942       0.73197147      -0.30540064       1.16953805
I        5.46030987       5.28246006       8.83529073      -0.29365955       0.00400772       0.06038295      -0.18712649      -0.92978673       0.48829446
I       15.71212373       9.39737530      11.22284676       0.03528213       0.06434948      -0.13677232      -0.30450229       0.37488670       0.26792562
I        6.71370586      10.74543331       8.94217238       0.01862448      -0.23808103      -0.23456773      -3.16130434      -0.96168141      -0.23973937
I       14.20424703       4.30596824      11.14420686       0.01917213      -0.28719689      -0.08330504      -0.82472177      -0.51268027      -2.36568801
Cs       7.43930670       3.15415463      15.98562427      -0.01545443      -0.16372316      -0.03268628      -0.54995310      -1.14071378       1.32959114
Cs      13.64119318      11.39605861      13.43274533       0.08844943       0.23820640       0.07867585       0.01537256       1.93724789      -0.68838697
Cs       4.76328702       8.26482820      16.02548755      -0.04942795       0.08114375       0.11655856      -0.38436488       1.29438711      -0.43978203
Cs      16.08563834       6.29839245      13.60613625       0.22899679       0.11816527       0.09458584       2.51360014       1.93452458      -0.97079151
Cs       7.53572672       2.91733510       1.58976762      -0.12074666       0.10314035      -0.01229095       0.42931223      -1.11772120       2.24891366
Cs      13.49397269      11.47187102      18.34650359       0.14007240       0.14642949       0.11128793      -0.25245218      -0.34295556       2.92644183
Cs       4.64486127       8.45461559       1.73186330      -0.16969454      -0.12994910      -0.25926676      -0.33873696      -2.67025013       1.39689382
Cs      16.35613309       6.54412010      18.50093697       0.02429581      -0.10159279      -0.14198283       0.03233956       0.04755170      -0.46212592
Pb       2.64743907       4.01961485      13.71091529       0.07857849      -0.06736996      -0.07432609      -2.75350237      -1.61002852       0.70552497
Pb      18.44555858      11.02063751      15.90389774      -0.08615269      -0.28355553       0.20111568       2.25090503       1.00635097       0.59757312
Pb       9.38759037       8.97177689      13.47653278      -0.03900144      -0.04124570       0.19070813       1.21259024      -1.11072509      -1.62348076
Pb      11.65816780       5.52189607      15.72482308      -0.12353581       0.08341635       0.22032071       2.12807441      -2.73668002      -2.35302286
Pb       2.61661963       3.98782532      18.56810015       0.22401963       0.09096334       0.06620668      -1.47358707      -0.77479634      -1.72755529
Pb      18.38079780      11.00120625       1.37132050      -0.02324647      -0.15619975       0.04074335      -2.99527553       1.03017190      -0.55568364
Pb       9.35722622       8.92871656      18.40984650      -0.03430813       0.15819463      -0.14289669       1.93975242       0.20345495      -2.18127088
Pb      11.43715790       5.70836749       1.37202367       0.03588645      -0.15285889       0.10861324      -1.33591397      -0.93796171      -2.57378268
I        1.62187336       5.84433724      16.07888172      -0.10048772       0.09809996       0.09094544      -1.64097768       0.85468472       1.96724107
I        1.47165211       9.38461579      13.66371481       0.13183666      -0.19798858      -0.01518036       1.78629247      -1.39536970       0.30912080
I       10.69207048      10.67580744      15.92357060      -0.23989789       0.09896884       0.08509560       1.60447269      -2.33380038       0.92442631
I       10.68285446       3.57371783      13.60920830      -0.18003322       0.08695083      -0.39075305       0.71091208       1.47243741      -2.25837096
I       17.40948590       2.51667699      13.57030223      -0.01444274      -0.07124975      -0.00259525       2.38807227       1.05016656      -1.76524021
I        3.62828499      12.45558238      16.09928385       0.02867695      -0.01539466       0.17558408       1.07490426       0.11569337      -0.11594290
I       12.50187805       7.82328438      13.44888008      -0.02847344      -0.35515849       0.04855219      -1.31489422       1.76042654       0.21511897
I        8.63002688       7.00097458      15.98972886      -0.26723892      -0.12771676      -0.10700307       0.02842415       1.68293718      -2.55844572
I        5.46298353       5.41164538      13.45436870      -0.07076962      -0.10385379       0.14095640       1.32402102       1.02276928      -0.41719869
I       15.70697664       9.38053626      16.01617954       0.08882665       0.09478427      -0.02727962       1.57780930      -1.52488613      -0.40481778
I        6.68213497      10.51740106      13.51021593       0.08603012       0.12819170       0.21914154       0.88867386      -0.47223263      -2.48994469
I       14.21327909       3.90909831      16.03389837       0.26696127       0.06142397      -0.00544763       1.53447364      -2.19765154       1.14104486
I        1.39662598       5.85954310       1.81260103       0.06766180      -0.04432145      -0.30474703      -1.76091630      -0.43944337      -0.81022222
I        1.64562191       9.11627710      18.56172864      -0.06038590       0.33514676      -0.15851898       0.23468494      -2.28422511       0.83035938
I       10.51320504      10.66137002       1.47523628       0.08482534       0.27127639      -0.04882232       0.64879654       0.96986729      -1.68758111
I       10.41089923       3.82649954      18.36188407       0.12741347      -0.03105887      -0.08855254       1.14750713      -3.15425440       1.07843993
I       17.37527001       2.53498973      18.33828430       0.02099839       0.01472424       0.05993075      -0.61836334       0.76376608      -0.93196235
I        3.62279107      12.41974255       1.65870041      -0.13770523       0.05555989      -0.12745745       0.66487943       0.64819742      -0.10624350
I       12.37305948       7.56102473      18.18662026       0.24343130       0.12717498       0.26950764       0.08117537      -0.05105052      -0.03081366
I        8.32426900       6.86629351       1.48541939       0.01462268       0.10819653       0.01553942       0.73197147      -0.30540064       1.16953805
I        5.51558094       5.29194203      18.49171919      -0.29365955       0.00400772       0.06038295      -0.18712649      -0.92978673       0.48829446
I       15.65685266       9.38789333       1.56641830       0.03528213       0.06434948      -0.13677232      -0.30450229       0.37488670       0.26792562
I        6.76897693      10.75491528      18.59860084       0.01862448      -0.23808103      -0.23456773      -3.16130434      -0.96168141      -0.23973937
I       14.14897596       4.29648627       1.48777840       0.01917213      -0.28719689      -0.08330504      -0.82472177      -0.51268027      -2.36568801
Cs       7.49693362      13.64945024       6.32154236      -0.01545443      -0.16372316      -0.03268628      -0.54995310      -1.14071378       1.32959114
Cs      13.47302412       0.88179906       3.78397032       0.08844943       0.23820640       0.07867585       0.01537256       1.93724789      -0.68838697
Cs       4.82091394      18.76012381       6.36140564      -0.04942795       0.08114375       0.11655856      -0.38436488       1.29438711      -0.43978203
Cs      16.14326526      16.79368806       3.94205434       0.22899679       0.11816527       0.09458584       2.51360014       1.93452458      -0.97079151
Cs       7.70389578      13.43159465      11.23854263      -0.12074666       0.10314035      -0.01229095       0.42931223      -1.11772120       2.24891366
Cs      13.32580363       0.95761147       8.69772858       0.14007240       0.14642949       0.11128793      -0.25245218      -0.34295556       2.92644183
Cs       4.81303033      18.96887514      11.38063831      -0.16969454      -0.12994910      -0.25926676      -0.33873696      -2.67025013       1.39689382
Cs      16.41376001      17.03941571       8.83685506       0.02429581      -0.10159279      -0.14198283       0.03233956       0.04755170      -0.46212592
Pb       2.70506599      14.51491046       4.04683338       0.07857849      -0.06736996      -0.07432609      -2.75350237      -1.61002852       0.70552497
Pb      18.27738952       0.50637796       6.25512273      -0.08615269      -0.28355553       0.20111568       2.25090503       1.00635097       0.59757312
Pb       9.44521729      19.46707250       3.81245087      -0.03900144      -0.04124570       0.19070813       1.21259024      -1.11072509      -1.62348076
Pb      11.71579472      16.01719168       6.06074117      -0.12353581       0.08341635       0.22032071       2.12807441      -2.73668002      -2.35302286
Pb       2.67424655      14.48312093       8.90401824       0.22401963       0.09096334       0.06620668      -1.47358707      -0.77479634      -1.72755529
Pb      18.32317088       0.50591064      11.03540241      -0.02324647      -0.15619975       0.04074335      -2.99527553       1.03017190      -0.55568364
Pb       9.41485314      19.42401217       8.74576459      -0.03430813       0.15819463      -0.14289669       1.93975242       0.20345495      -2.18127088
Pb      11.60532696      16.22262704      11.02079868       0.03588645      -0.15285889       0.10861324      -1.33591397      -0.93796171      -2.57378268
I        1.67950028      16.33963285       6.41479981      -0.10048772       0.09809996       0.09094544      -1.64097768       0.85468472       1.96724107
I        1.52927903      19.87991140       3.99963290       0.13183666      -0.19798858      -0.01518036       1.78629247      -1.39536970       0.30912080
I       10.52390142       0.16154789       6.27479559      -0.23989789       0.09896884       0.08509560       1.60447269      -2.33380038       0.92442631
I       10.74048138      14.06901344       3.94512639      -0.18003322       0.08695083      -0.39075305       0.71091208       1.47243741      -2.25837096
I       17.46711282      13.01197260       3.90622032      -0.01444274      -0.07124975      -0.00259525       2.38807227       1.05016656      -1.76524021
I        3.46011593       1.94132283       6.45050884       0.02867695      -0.01539466       0.17558408       1.07490426       0.11569337      -0.11594290
I       12.55950497      18.31857999       3.78479817      -0.02847344      -0.35515849       0.04855219      -1.31489422       1.76042654       0.21511897
I        8.68765380      17.49627019       6.32564695      -0.26723892      -0.12771676      -0.10700307       0.02842415       1.68293718      -2.55844572
I        5.52061045      15.90694099       3.79028679      -0.07076962      -0.10385379       0.14095640       1.32402102       1.02276928      -0.41719869
I       15.76460356      19.87583187       6.35209763       0.08882665       0.09478427      -0.02727962       1.57780930      -1.52488613      -0.40481778
I        6.51396591       0.00314151       3.86144092       0.08603012       0.12819170       0.21914154       0.88867386      -0.47223263      -2.48994469
I       14.27090601      14.40439392       6.36981646       0.26696127       0.06142397      -0.00544763       1.53447364      -2.19765154       1.14104486
I        1.56479504      16.37380265      11.46137604       0.06766180      -0.04432145      -0.30474703      -1.76091630      -0.43944337      -0.81022222
I        1.70324883      19.61157271       8.89764673      -0.06038590       0.33514676      -0.15851898       0.23468494      -2.28422511       0.83035938
I       10.45557812       0.16607441      11.13931819       0.08482534       0.27127639      -0.04882232       0.64879654       0.96986729      -1.68758111
I       10.46852615      14.32179515       8.69780216       0.12741347      -0.03105887      -0.08855254       1.14750713      -3.15425440       1.07843993
I       17.43289693      13.03028534       8.67420239       0.02099839       0.01472424       0.05993075      -0.61836334       0.76376608      -0.93196235
I        3.56516415       1.92444694      11.32278232      -0.13770523       0.05555989      -0.12745745       0.66487943       0.64819742      -0.10624350
I       12.43068640      18.05632034       8.52253835       0.24343130       0.12717498       0.26950764       0.08117537      -0.05105052      -0.03081366
I        8.49243806      17.38055306      11.13419440       0.01462268       0.10819653       0.01553942       0.73197147      -0.30540064       1.16953805
I        5.57320786      15.78723764       8.82763728      -0.29365955       0.00400772       0.06038295      -0.18712649      -0.92978673       0.48829446
I       15.82502172      19.90215288      11.21519331       0.03528213       0.06434948      -0.13677232      -0.30450229       0.37488670       0.26792562
I        6.60080787       0.24065573       8.94982583       0.01862448      -0.23808103      -0.23456773      -3.16130434      -0.96168141      -0.23973937
I       14.31714502      14.81074582      11.13655341       0.01917213      -0.28719689      -0.08330504      -0.82472177      -0.51268027      -2.36568801
Cs       7.55220469      13.65893221      15.97797082      -0.01545443      -0.16372316      -0.03268628      -0.54995310      -1.14071378       1.32959114
Cs      13.52829518       0.89128103      13.44039878       0.08844943       0.23820640       0.07867585       0.01537256       1.93724789      -0.68838697
Cs       4.87618501      18.76960578      16.01783410      -0.04942795       0.08114375       0.11655856      -0.38436488       1.29438711      -0.43978203
Cs      16.19853633      16.80317003      13.59848280       0.22899679       0.11816527       0.09458584       2.51360014       1.93452458      -0.97079151
Cs       7.64862472      13.42211268       1.58211417      -0.12074666       0.10314035      -0.01229095       0.42931223      -1.11772120       2.24891366
Cs      13.38107469       0.96709344      18.35415704       0.14007240       0.14642949       0.11128793      -0.25245218      -0.34295556       2.92644183
Cs       4.75775927      18.95939317       1.72420985      -0.16969454      -0.12994910      -0.25926676      -0.33873696      -2.67025013       1.39689382
Cs      16.46903108      17.04889768      18.49328352       0.02429581      -0.10159279      -0.14198283       0.03233956       0.04755170      -0.46212592
Pb       2.76033706      14.52439243      13.70326184       0.07857849      -0.06736996      -0.07432609      -2.75350237      -1.61002852       0.70552497
Pb      18.33266058       0.51585993      15.91155119      -0.08615269      -0.28355553       0.20111568       2.25090503       1.00635097       0.59757312
Pb       9.50048836      19.47655447      13.46887933      -0.03900144      -0.04124570       0.19070813       1.21259024      -1.11072509      -1.62348076
Pb      11.77106579      16.02667365      15.71716963      -0.12353581       0.08341635       0.22032071       2.12807441      -2.73668002      -2.35302286
Pb       2.72951762      14.49260290      18.56044670       0.22401963       0.09096334       0.06620668      -1.47358707      -0.77479634      -1.72755529
Pb      18.26789981       0.49642867       1.37897395      -0.02324647      -0.15619975       0.04074335      -2.99527553       1.03017190      -0.55568364
Pb       9.47012421      19.43349414      18.40219305      -0.03430813       0.15819463      -0.14289669       1.93975242       0.20345495      -2.18127088
Pb      11.55005590      16.21314507       1.36437022       0.03588645      -0.15285889       0.10861324      -1.33591397      -0.93796171      -2.57378268
I        1.73477135      16.34911482      16.07122827      -0.10048772       0.09809996       0.09094544      -1.64097768       0.85468472       1.96724107
I        1.58455010      19.88939337      13.65606136       0.13183666      -0.19798858      -0.01518036       1.78629247      -1.39536970       0.30912080
I       10.57917248       0.17102986      15.93122405      -0.23989789       0.09896884       0.08509560       1.60447269      -2.33380038       0.92442631
I       10.79575245      14.07849541      13.60155485      -0.18003322       0.08695083      -0.39075305       0.71091208       1.47243741      -2.25837096
I       17.52238389      13.02145457      13.56264878      -0.01444274      -0.07124975      -0.00259525       2.38807227       1.05016656      -1.76524021
I        3.51538699       1.95080480      16.10693730       0.02867695      -0.01539466       0.17558408       1.07490426       0.11569337      -0.11594290
I       12.61477604      18.32806196      13.44122663      -0.02847344      -0.35515849       0.04855219      -1.31489422       1.76042654       0.21511897
I        8.74292487      17.50575216      15.98207541      -0.26723892      -0.12771676      -0.10700307       0.02842415       1.68293718      -2.55844572
I        5.57588152      15.91642296      13.44671525      -0.07076962      -0.10385379       0.14095640       1.32402102       1.02276928      -0.41719869
I       15.81987463      19.88531384      16.00852609       0.08882665       0.09478427      -0.02727962       1.57780930      -1.52488613      -0.40481778
I        6.56923697       0.01262348      13.51786938       0.08603012       0.12819170       0.21914154       0.88867386      -0.47223263      -2.48994469
I       14.32617708      14.41387589      16.02624492       0.26696127       0.06142397      -0.00544763       1.53447364      -2.19765154       1.14104486
I        1.50952398      16.36432068       1.80494758       0.06766180      -0.04432145      -0.30474703      -1.76091630      -0.43944337      -0.81022222
I        1.75851990      19.62105468      18.55407519      -0.06038590       0.33514676      -0.15851898       0.23468494      -2.28422511       0.83035938
I       10.40030705       0.15659244       1.48288973       0.08482534       0.27127639      -0.04882232       0.64879654       0.96986729      -1.68758111
I       10.52379722      14.33127712      18.35423062       0.12741347      -0.03105887      -0.08855254       1.14750713      -3.15425440       1.07843993
I       17.48816800      13.03976731      18.33063085       0.02099839       0.01472424       0.05993075      -0.61836334       0.76376608      -0.93196235
I        3.50989308       1.91496497       1.66635386      -0.13770523       0.05555989      -0.12745745       0.66487943       0.64819742      -0.10624350
I       12.48595747      18.06580231      18.17896681       0.24343130       0.12717498       0.26950764       0.08117537      -0.05105052      -0.03081366
I        8.43716700      17.37107109       1.47776594       0.01462268       0.10819653       0.01553942       0.73197147      -0.30540064       1.16953805
I        5.62847893      15.79671961      18.48406574      -0.29365955       0.00400772       0.06038295      -0.18712649      -0.92978673       0.48829446
I       15.76975066      19.89267091       1.55876485       0.03528213       0.06434948      -0.13677232      -0.30450229       0.37488670       0.26792562
I        6.65607893       0.25013770      18.60625429       0.01862448      -0.23808103      -0.23456773      -3.16130434      -0.96168141      -0.23973937
I       14.26187396      14.80126385       1.48012495       0.01917213      -0.28719689      -0.08330504      -0.82472177      -0.51268027      -2.36568801
Cs      25.27800584       2.95547343       6.20811024      -0.01545443      -0.16372316      -0.03268628      -0.54995310      -1.14071378       1.32959114
Cs      31.47989232      11.19737741       3.65523130       0.08844943       0.23820640       0.07867585       0.01537256       1.93724789      -0.68838697
Cs      22.60198616       8.06614700       6.24797352      -0.04942795       0.08114375       0.11655856      -0.38436488       1.29438711      -0.43978203
Cs      33.92433748       6.09971125       3.82862222       0.22899679       0.11816527       0.09458584       2.51360014       1.93452458      -0.97079151
Cs      25.48496800       2.73761784      11.12511051      -0.12074666       0.10314035      -0.01229095       0.42931223      -1.11772120       2.24891366
Cs      31.33267183      11.27318982       8.56898956       0.14007240       0.14642949       0.11128793      -0.25245218      -0.34295556       2.92644183
Cs      22.59410255       8.27489833      11.26720619      -0.16969454      -0.12994910      -0.25926676      -0.33873696      -2.67025013       1.39689382
Cs      34.19483223       6.34543890       8.72342294       0.02429581      -0.10159279      -0.14198283       0.03233956       0.04755170      -0.46212592
Pb      20.48613821       3.82093365       3.93340126       0.07857849      -0.06736996      -0.07432609      -2.75350237      -1.61002852       0.70552497
Pb       0.49631730      11.20035477       6.36855485      -0.08615269      -0.28355553       0.20111568       2.25090503       1.00635097       0.59757312
Pb      27.22628951       8.77309569       3.69901875      -0.03900144      -0.04124570       0.19070813       1.21259024      -1.11072509      -1.62348076
Pb      29.49686694       5.32321487       5.94730905      -0.12353581       0.08341635       0.22032071       2.12807441      -2.73668002      -2.35302286
Pb      20.45531877       3.78914412       8.79058612       0.22401963       0.09096334       0.06620668      -1.47358707      -0.77479634      -1.72755529
Pb       0.54209866      11.19988745      11.14883453      -0.02324647      -0.15619975       0.04074335      -2.99527553       1.03017190      -0.55568364
Pb      27.19592536       8.73003536       8.63233247      -0.03430813       0.15819463      -0.14289669       1.93975242       0.20345495      -2.18127088
Pb      29.38639918       5.52865023      10.90736656       0.03588645      -0.15285889       0.10861324      -1.33591397      -0.93796171      -2.57378268
I       19.46057250       5.64565604       6.30136769      -0.10048772       0.09809996       0.09094544      -1.64097768       0.85468472       1.96724107
I       19.31035125       9.18593459       3.88620078       0.13183666      -0.19798858      -0.01518036       1.78629247      -1.39536970       0.30912080
I       28.53076962      10.47712624       6.14605657      -0.23989789       0.09896884       0.08509560       1.60447269      -2.33380038       0.92442631
I       28.52155360       3.37503663       3.83169427      -0.18003322       0.08695083      -0.39075305       0.71091208       1.47243741      -2.25837096
I       35.24818504       2.31799579       3.79278820      -0.01444274      -0.07124975      -0.00259525       2.38807227       1.05016656      -1.76524021
I       21.46698413      12.25690118       6.32176982       0.02867695      -0.01539466       0.17558408       1.07490426       0.11569337      -0.11594290
I       30.34057719       7.62460318       3.67136605      -0.02847344      -0.35515849       0.04855219      -1.31489422       1.76042654       0.21511897
I       26.46872602       6.80229338       6.21221483      -0.26723892      -0.12771676      -0.10700307       0.02842415       1.68293718      -2.55844572
I       23.30168267       5.21296418       3.67685467      -0.07076962      -0.10385379       0.14095640       1.32402102       1.02276928      -0.41719869
I       33.54567578       9.18185506       6.23866551       0.08882665       0.09478427      -0.02727962       1.57780930      -1.52488613      -0.40481778
I       24.52083411      10.31871986       3.73270190       0.08603012       0.12819170       0.21914154       0.88867386      -0.47223263      -2.48994469
I       32.05197823       3.71041711       6.25638434       0.26696127       0.06142397      -0.00544763       1.53447364      -2.19765154       1.14104486
I       19.34586726       5.67982584      11.34794392       0.06766180      -0.04432145      -0.30474703      -1.76091630      -0.43944337      -0.81022222
I       19.48432105       8.91759590       8.78421461      -0.06038590       0.33514676      -0.15851898       0.23468494      -2.28422511       0.83035938