320
Lattice="35.78794042575779 -0.37839846603646177 -0.24217113649280456 0.2257959835333163 21.00955516298944 -0.015306901360210465 0.11054213265190213 0.01896394099226511 19.312856914076352" Properties=species:S:1:pos:R:3:forces:R:3:momenta:R:3 pbc="T T T"
Cs       7.27316609       1.51218392       4.60548701      -0.02367536      -0.04347140       0.04670039      -1.53089089      -0.96467592       0.28453180
Cs      13.53795389      10.10655884       2.44229176       0.00403231       0.00802370      -0.26158985      -0.39771507      -1.82718309      -0.14136871
Cs       4.59924978       6.72606395       4.75141908      -0.00480424      -0.05520044      -0.05688162      -0.39941050      -1.67461704      -1.10702899
Cs      16.41360141       4.71773463       2.50742399      -0.11234640       0.00666414      -0.19969913       0.62915087      -0.97235941      -1.79986573
Cs       7.37697149       1.25158184       9.40659818      -0.00015417       0.12922105       0.07524669       0.18889679      -0.08331103       0.26457800
Cs      13.38122284       9.81274401       7.02035625       0.15178247       0.19051999       0.30580121       1.25872042      -1.06076411      -0.30355344
Cs       4.58605287       6.65306090       9.46710080       0.00987199       0.10369333       0.04555708      -4.05198659       0.96835939       0.11874458
Cs      16.24291124       4.64023165       7.11068676       0.06569736       0.17959491       0.12041714      -0.34690392      -0.87740368      -1.50646847
Pb       2.49369173       2.19217635       2.34309655      -0.04654971      -0.10625697       0.11042496      -2.18308282      -0.91472447      -0.54179298
Pb      18.22118883       9.18486957       4.79000623      -0.01631156       0.35715364      -0.10139046      -1.04654443       1.65968329       1.11259664
Pb       9.24761646       7.56075956       2.48693945       0.09616065      -0.53829538      -0.55445997      -1.14746172      -4.40995818       0.07400242
Pb      11.72874560       3.97833767       4.63937073      -0.38992032      -0.15460166       0.04949657      -0.29004052       1.18229370       0.83812694
Pb       2.55328280       2.40549528       7.18410015      -0.36204885      -0.33098961      -0.02096018      -1.06977326      -1.88046291      -4.97828512
Pb      18.18811488       9.22487355       9.56103445       0.10034239       0.35457377      -0.05306591       0.27271633       2.71190214      -0.82987179
Pb       9.49736553       7.28646264       7.05934750      -0.13553334      -0.05138004       0.39478292      -0.25161270      -1.49606615      -3.43312284
Pb      11.51363681       3.96410830       9.52178401       0.08742460      -0.21326766       0.07901601       1.24223794       1.02516035       0.70525994
I        1.49619213       4.34884602       4.79353530       0.11417047      -0.25524424      -0.14546908       0.60094638      -1.09704029       1.12027444
I        1.55417873       7.69143467       2.43013639      -0.01556287      -0.11633361      -0.13710618      -1.04945762       0.44858353       0.00797317
I       10.52876469       9.23816386       4.65783425      -0.06187386       0.06238432       0.09692943      -1.92337324      -2.47283000       1.50189257
I       10.48227681       2.00437438       2.38301531      -0.04312780       0.20937321      -0.15477860       0.19511380      -3.03006788      -0.11947368
I       17.27455486       0.85423690       2.33850288       0.01501424      -0.19433488       0.05791364       0.36443024       0.13580866       0.32475506
I        3.48740446      10.69955468       4.85207370      -0.02055378       0.07809370       0.08682070       0.69978248      -0.10520981       0.50997142
I       12.54556748       5.95309842       2.21299384      -0.35872107       0.07370688       0.09572878       0.71084347      -0.61015298      -1.25622296
I        8.43847943       5.25873341       4.78234979       0.07388462       0.15725699      -0.11967824       0.17390031      -0.22607605      -0.66341067
I        5.22064065       3.56858990       2.10420804       0.17097192       0.19989734       0.15476160       2.11656461       1.73256801       1.26076945
I       15.44203583       7.80242870       4.55127019       0.11430677      -0.15237205       0.20033868       0.20466611      -0.44190064       1.13223774
I        6.50208500       8.97553634       2.20389427       0.15425837      -0.08135158       0.12691646       0.54437938      -1.99389876      -1.50177638
I       14.27564334       2.32675083       4.88097329       0.04908573       0.10282604      -0.09844309       1.14926985       0.67659033       0.08873900
I        1.51392341       4.12166545       9.75961755      -0.12490812       0.16518764      -0.15977425       0.50538185      -0.65899425       0.65286471
I        1.33523366       7.55632042       7.28999998       0.10920470      -0.14502250      -0.01074299       0.52849229       1.01664500      -1.01720200
I       10.47554752       9.24829559       9.59198050       0.00653157      -0.18871005       0.00522136      -1.91876434       0.73566891       0.21005839
I       10.26877873       2.09055367       7.12099175       0.25860287       0.18127035      -0.16088946       0.56594522      -1.55015213      -0.89651540
I       17.15842591       0.86178630       7.06305558       0.27598596      -0.22848297       0.13716043      -0.35584685      -2.05365695      -0.00375318
I        3.55104610      10.72818921       9.44957399      -0.12414825       0.07129422       0.13216241       0.21123551      -0.45341667       2.62574757
I       12.60481435       5.91074975       7.09554961      -0.06145470       0.08447164       0.09433400       0.52636688       1.44072626      -0.17416313
I        8.45930903       5.27184019       9.52141700       0.14846747       0.39265992       0.11572133      -1.10761665       0.27260064      -1.70141967
I        5.22118621       3.75337885       7.19718410       0.25519361       0.02189510      -0.09998625       0.07956173       0.74848182       0.00614139
I       15.51315327       7.79761666       9.71086850      -0.01037438      -0.14362660      -0.12861097       1.01550184       2.49002706      -1.58230533
I        6.88338492       8.94973630       7.01086464      -0.14277334      -0.12340245      -0.00646086       0.61179773      -1.01541360      -0.57717565
I       14.31933536       2.50232398       9.61607022      -0.20614795      -0.00741776      -0.06146469       1.50220959       0.74551402       0.37055468
Cs       7.32843716       1.52166589      14.26191547      -0.02367536      -0.04347140       0.04670039      -1.53089089      -0.96467592       0.28453180
Cs      13.59322496      10.11604081      12.09872022       0.00403231       0.00802370      -0.26158985      -0.39771507      -1.82718309      -0.14136871
Cs       4.65452085       6.73554592      14.40784754      -0.00480424      -0.05520044      -0.05688162      -0.39941050      -1.67461704      -1.10702899
Cs      16.46887248       4.72721660      12.16385245      -0.11234640       0.00666414      -0.19969913       0.62915087      -0.97235941      -1.79986573
Cs       7.43224256       1.26106381      19.06302664      -0.00015417       0.12922105       0.07524669       0.18889679      -0.08331103       0.26457800
Cs      13.43649391       9.82222598      16.67678471       0.15178247       0.19051999       0.30580121       1.25872042      -1.06076411      -0.30355344
Cs       4.64132394       6.66254287      19.12352926       0.00987199       0.10369333       0.04555708      -4.05198659       0.96835939       0.11874458
Cs      16.29818231       4.64971362      16.76711522       0.06569736       0.17959491       0.12041714      -0.34690392      -0.87740368      -1.50646847
Pb       2.54896280       2.20165832      11.99952501      -0.04654971      -0.10625697       0.11042496      -2.18308282      -0.91472447      -0.54179298
Pb      18.27645990       9.19435154      14.44643469      -0.01631156       0.35715364      -0.10139046      -1.04654443       1.65968329       1.11259664
Pb       9.30288753       7.57024153      12.14336791       0.09616065      -0.53829538      -0.55445997      -1.14746172      -4.40995818       0.07400242
Pb      11.78401667       3.98781964      14.29579919      -0.38992032      -0.15460166       0.04949657      -0.29004052       1.18229370       0.83812694
Pb       2.60855387       2.41497725      16.84052861      -0.36204885      -0.33098961      -0.02096018      -1.06977326      -1.88046291      -4.97828512
Pb      18.13284381       9.21539158      -0.09539401       0.10034239       0.35457377      -0.05306591       0.27271633       2.71190214      -0.82987179
Pb       9.55263660       7.29594461      16.71577596      -0.13553334      -0.05138004       0.39478292      -0.25161270      -1.49606615      -3.43312284
Pb      11.56890788       3.97359027      19.17821247       0.08742460      -0.21326766       0.07901601       1.24223794       1.02516035       0.70525994
I        1.55146320       4.35832799      14.44996376       0.11417047      -0.25524424      -0.14546908       0.60094638      -1.09704029       1.12027444
I        1.60944980       7.70091664      12.08656485      -0.01556287      -0.11633361      -0.13710618      -1.04945762       0.44858353       0.00797317
I       10.58403576       9.24764583      14.31426271      -0.06187386       0.06238432       0.09692943      -1.92337324      -2.47283000       1.50189257
I       10.53754788       2.01385635      12.03944377      -0.04312780       0.20937321      -0.15477860       0.19511380      -3.03006788      -0.11947368
I       17.32982593       0.86371887      11.99493134       0.01501424      -0.19433488       0.05791364       0.36443024       0.13580866       0.32475506
I        3.54267553      10.70903665      14.50850216      -0.02055378       0.07809370       0.08682070       0.69978248      -0.10520981       0.50997142
I       12.60083855       5.96258039      11.86942230      -0.35872107       0.07370688       0.09572878       0.71084347      -0.61015298      -1.25622296
I        8.49375050       5.26821538      14.43877825       0.07388462       0.15725699      -0.11967824       0.17390031      -0.22607605      -0.66341067
I        5.27591172       3.57807187      11.76063650       0.17097192       0.19989734       0.15476160       2.11656461       1.73256801       1.26076945
I       15.49730690       7.81191067      14.20769865       0.11430677      -0.15237205       0.20033868       0.20466611      -0.44190064       1.13223774
I        6.55735607       8.98501831      11.86032273       0.15425837      -0.08135158       0.12691646       0.54437938      -1.99389876      -1.50177638
I       14.33091441       2.33623280      14.53740175       0.04908573       0.10282604      -0.09844309       1.14926985       0.67659033       0.08873900
I        1.45865234       4.11218348       0.10318909      -0.12490812       0.16518764      -0.15977425       0.50538185      -0.65899425       0.65286471
I        1.39050473       7.56580239      16.94642844       0.10920470      -0.14502250      -0.01074299       0.52849229       1.01664500      -1.01720200
I       10.42027645       9.23881362      -0.06444796       0.00653157      -0.18871005       0.00522136      -1.91876434       0.73566891       0.21005839
I       10.32404980       2.10003564      16.77742021       0.25860287       0.18127035      -0.16088946       0.56594522      -1.55015213      -0.89651540
I       17.21369698       0.87126827      16.71948404       0.27598596      -0.22848297       0.13716043      -0.35584685      -2.05365695      -0.00375318
I        3.60631717      10.73767118      19.10600245      -0.12414825       0.07129422       0.13216241       0.21123551      -0.45341667       2.62574757
I       12.66008542       5.92023172      16.75197807      -0.06145470       0.08447164       0.09433400       0.52636688       1.44072626      -0.17416313
I        8.51458010       5.28132216      19.17784546       0.14846747       0.39265992       0.11572133      -1.10761665       0.27260064      -1.70141967
I        5.27645728       3.76286082      16.85361256       0.25519361       0.02189510      -0.09998625       0.07956173       0.74848182       0.00614139
I       15.45788220       7.78813469       0.05444004      -0.01037438      -0.14362660      -0.12861097       1.01550184       2.49002706      -1.58230533
I        6.93865599       8.95921827      16.66729310      -0.14277334      -0.12340245      -0.00646086       0.61179773      -1.01541360      -0.57717565
I       14.26406429       2.49284201      -0.04035824      -0.20614795      -0.00741776      -0.06146469       1.50220959       0.74551402       0.37055468
Cs       7.38606408      12.01696150       4.59783356      -0.02367536      -0.04347140       0.04670039      -1.53089089      -0.96467592       0.28453180
Cs      13.65085188      20.61133642       2.43463831       0.00403231       0.00802370      -0.26158985      -0.39771507      -1.82718309      -0.14136871
Cs       4.71214777      17.23084153       4.74376563      -0.00480424      -0.05520044      -0.05688162      -0.39941050      -1.67461704      -1.10702899
Cs      16.52649940      15.22251221       2.49977054      -0.11234640       0.00666414      -0.19969913       0.62915087      -0.97235941      -1.79986573
Cs       7.48986948      11.75635942       9.39894473      -0.00015417       0.12922105       0.07524669       0.18889679      -0.08331103       0.26457800
Cs      13.49412083      20.31752159       7.01270280       0.15178247       0.19051999       0.30580121       1.25872042      -1.06076411      -0.30355344
Cs       4.69895086      17.15783848       9.45944735       0.00987199       0.10369333       0.04555708      -4.05198659       0.96835939       0.11874458
Cs      16.35580923      15.14500923       7.10303331       0.06569736       0.17959491       0.12041714      -0.34690392      -0.87740368      -1.50646847
Pb       2.60658972      12.69695393       2.33544310      -0.04654971      -0.10625697       0.11042496      -2.18308282      -0.91472447      -0.54179298
Pb      18.33408682      19.68964715       4.78235278      -0.01631156       0.35715364      -0.10139046      -1.04654443       1.65968329       1.11259664
Pb       9.36051445      18.06553714       2.47928600       0.09616065      -0.53829538      -0.55445997      -1.14746172      -4.40995818       0.07400242
Pb      11.84164359      14.48311525       4.63171728      -0.38992032      -0.15460166       0.04949657      -0.29004052       1.18229370       0.83812694
Pb       2.66618079      12.91027286       7.17644670      -0.36204885      -0.33098961      -0.02096018      -1.06977326      -1.88046291      -4.97828512
Pb      18.30101287      19.72965113       9.55338100       0.10034239       0.35457377      -0.05306591       0.27271633       2.71190214      -0.82987179
Pb       9.61026352      17.79124022       7.05169405      -0.13553334      -0.05138004       0.39478292      -0.25161270      -1.49606615      -3.43312284
Pb      11.62653480      14.46888588       9.51413056       0.08742460      -0.21326766       0.07901601       1.24223794       1.02516035       0.70525994
I        1.60909012      14.85362360       4.78588185       0.11417047      -0.25524424      -0.14546908       0.60094638      -1.09704029       1.12027444
I        1.66707672      18.19621225       2.42248294      -0.01556287      -0.11633361      -0.13710618      -1.04945762       0.44858353       0.00797317
I       10.64166268      19.74294144       4.65018080      -0.06187386       0.06238432       0.09692943      -1.92337324      -2.47283000       1.50189257
I       10.59517480      12.50915196       2.37536186      -0.04312780       0.20937321      -0.15477860       0.19511380      -3.03006788      -0.11947368
I       17.38745285      11.35901448       2.33084943       0.01501424      -0.19433488       0.05791364       0.36443024       0.13580866       0.32475506
I        3.37450647       0.19477710       4.85972715      -0.02055378       0.07809370       0.08682070       0.69978248      -0.10520981       0.50997142
I       12.65846547      16.45787600       2.20534039      -0.35872107       0.07370688       0.09572878       0.71084347      -0.61015298      -1.25622296
I        8.55137742      15.76351099       4.77469634       0.07388462       0.15725699      -0.11967824       0.17390031      -0.22607605      -0.66341067
I        5.33353864      14.07336748       2.09655459       0.17097192       0.19989734       0.15476160       2.11656461       1.73256801       1.26076945
I       15.55493382      18.30720628       4.54361674       0.11430677      -0.15237205       0.20033868       0.20466611      -0.44190064       1.13223774
I        6.61498299      19.48031392       2.19624082       0.15425837      -0.08135158       0.12691646       0.54437938      -1.99389876      -1.50177638
I       14.38854133      12.83152841       4.87331984       0.04908573       0.10282604      -0.09844309       1.14926985       0.67659033       0.08873900
I        1.62682140      14.62644303       9.75196410      -0.12490812       0.16518764      -0.15977425       0.50538185      -0.65899425       0.65286471
I        1.44813165      18.06109800       7.28234653       0.10920470      -0.14502250      -0.01074299       0.52849229       1.01664500      -1.01720200
I       10.58844551      19.75307317       9.58432705       0.00653157      -0.18871005       0.00522136      -1.91876434       0.73566891       0.21005839
I       10.38167672      12.59533125       7.11333830       0.25860287       0.18127035      -0.16088946       0.56594522      -1.55015213      -0.89651540
I       17.27132390      11.36656388       7.05540213       0.27598596      -0.22848297       0.13716043      -0.35584685      -2.05365695      -0.00375318
I        3.43814811       0.22341163       9.45722744      -0.12414825       0.07129422       0.13216241       0.21123551      -0.45341667       2.62574757
I       12.71771234      16.41552733       7.08789616      -0.06145470       0.08447164       0.09433400       0.52636688       1.44072626      -0.17416313
I        8.57220702      15.77661777       9.51376355       0.14846747       0.39265992       0.11572133      -1.10761665       0.27260064      -1.70141967
I        5.33408420      14.25815643       7.18953065       0.25519361       0.02189510      -0.09998625       0.07956173       0.74848182       0.00614139
I       15.62605126      18.30239424       9.70321505      -0.01037438      -0.14362660      -0.12861097       1.01550184       2.49002706      -1.58230533
I        6.99628291      19.45451388       7.00321119      -0.14277334      -0.12340245      -0.00646086       0.61179773      -1.01541360      -0.57717565
I       14.43223335      13.00710156       9.60841677      -0.20614795      -0.00741776      -0.06146469       1.50220959       0.74551402       0.37055468
Cs       7.44133515      12.02644347      14.25426202      -0.02367536      -0.04347140       0.04670039      -1.53089089      -0.96467592       0.28453180
Cs      13.70612295      20.62081839      12.09106677       0.00403231       0.00802370      -0.26158985      -0.39771507      -1.82718309      -0.14136871
Cs       4.76741884      17.24032350      14.40019409      -0.00480424      -0.05520044      -0.05688162      -0.39941050      -1.67461704      -1.10702899
Cs      16.58177047      15.23199418      12.15619900      -0.11234640       0.00666414      -0.19969913       0.62915087      -0.97235941      -1.79986573
Cs       7.54514055      11.76584139      19.05537319      -0.00015417       0.12922105       0.07524669       0.18889679      -0.08331103       0.26457800
Cs      13.54939190      20.32700356      16.66913126       0.15178247       0.19051999       0.30580121       1.25872042      -1.06076411      -0.30355344
Cs       4.75422193      17.16732045      19.11587581       0.00987199       0.10369333       0.04555708      -4.05198659       0.96835939       0.11874458
Cs      16.41108030      15.15449120      16.75946177       0.06569736       0.17959491       0.12041714      -0.34690392      -0.87740368      -1.50646847
Pb       2.66186079      12.70643590      11.99187156      -0.04654971      -0.10625697       0.11042496      -2.18308282      -0.91472447      -0.54179298
Pb      18.38935789      19.69912912      14.43878124      -0.01631156       0.35715364      -0.10139046      -1.04654443       1.65968329       1.11259664
Pb       9.41578552      18.07501911      12.13571446       0.09616065      -0.53829538      -0.55445997      -1.14746172      -4.40995818       0.07400242
Pb      11.89691466      14.49259722      14.28814574      -0.38992032      -0.15460166       0.04949657      -0.29004052       1.18229370       0.83812694
Pb       2.72145186      12.91975483      16.83287516      -0.36204885      -0.33098961      -0.02096018      -1.06977326      -1.88046291      -4.97828512
Pb      18.24574181      19.72016916      -0.10304746       0.10034239       0.35457377      -0.05306591       0.27271633       2.71190214      -0.82987179
Pb       9.66553459      17.80072219      16.70812251      -0.13553334      -0.05138004       0.39478292      -0.25161270      -1.49606615      -3.43312284
Pb      11.68180587      14.47836785      19.17055902       0.08742460      -0.21326766       0.07901601       1.24223794       1.02516035       0.70525994
I        1.66436119      14.86310557      14.44231031       0.11417047      -0.25524424      -0.14546908       0.60094638      -1.09704029       1.12027444
I        1.72234779      18.20569422      12.07891140      -0.01556287      -0.11633361      -0.13710618      -1.04945762       0.44858353       0.00797317
I       10.69693375      19.75242341      14.30660926      -0.06187386       0.06238432       0.09692943      -1.92337324      -2.47283000       1.50189257
I       10.65044587      12.51863393      12.03179032      -0.04312780       0.20937321      -0.15477860       0.19511380      -3.03006788      -0.11947368
I       17.44272392      11.36849645      11.98727789       0.01501424      -0.19433488       0.05791364       0.36443024       0.13580866       0.32475506
I        3.42977753       0.20425907      14.51615561      -0.02055378       0.07809370       0.08682070       0.69978248      -0.10520981       0.50997142
I       12.71373654      16.46735797      11.86176885      -0.35872107       0.07370688       0.09572878       0.71084347      -0.61015298      -1.25622296
I        8.60664849      15.77299296      14.43112480       0.07388462       0.15725699      -0.11967824       0.17390031      -0.22607605      -0.66341067
I        5.38880971      14.08284945      11.75298305       0.17097192       0.19989734       0.15476160       2.11656461       1.73256801       1.26076945
I       15.61020489      18.31668825      14.20004520       0.11430677      -0.15237205       0.20033868       0.20466611      -0.44190064       1.13223774
I        6.67025406      19.48979589      11.85266928       0.15425837      -0.08135158       0.12691646       0.54437938      -1.99389876      -1.50177638
I       14.44381240      12.84101038      14.52974830       0.04908573       0.10282604      -0.09844309       1.14926985       0.67659033       0.08873900
I        1.57155034      14.61696106       0.09553564      -0.12490812       0.16518764      -0.15977425       0.50538185      -0.65899425       0.65286471
I        1.50340272      18.07057997      16.93877499       0.10920470      -0.14502250      -0.01074299       0.52849229       1.01664500      -1.01720200
I       10.53317445      19.74359120      -0.07210141       0.00653157      -0.18871005       0.00522136      -1.91876434       0.73566891       0.21005839
I       10.43694779      12.60481322      16.76976676       0.25860287       0.18127035      -0.16088946       0.56594522      -1.55015213      -0.89651540
I       17.32659497      11.37604585      16.71183059       0.27598596      -0.22848297       0.13716043      -0.35584685      -2.05365695      -0.00375318
I        3.49341917       0.23289360      19.11365590      -0.12414825       0.07129422       0.13216241       0.21123551      -0.45341667       2.62574757
I       12.77298341      16.42500930      16.74432462      -0.06145470       0.08447164       0.09433400       0.52636688       1.44072626      -0.17416313
I        8.62747809      15.78609974      19.17019201       0.14846747       0.39265992       0.11572133      -1.10761665       0.27260064      -1.70141967
I        5.38935527      14.26763840      16.84595911       0.25519361       0.02189510      -0.09998625       0.07956173       0.74848182       0.00614139
I       15.57078020      18.29291227       0.04678659      -0.01037438      -0.14362660      -0.12861097       1.01550184       2.49002706      -1.58230533
I        7.05155398      19.46399585      16.65963965      -0.14277334      -0.12340245      -0.00646086       0.61179773      -1.01541360      -0.57717565
I       14.37696229      12.99761959      -0.04801169      -0.20614795      -0.00741776      -0.06146469       1.50220959       0.74551402       0.37055468
Cs      25.16713630       1.32298469       4.48440144      -0.02367536      -0.04347140       0.04670039      -1.53089089      -0.96467592       0.28453180
Cs      31.43192410       9.91735961       2.32120619       0.00403231       0.00802370      -0.26158985      -0.39771507      -1.82718309      -0.14136871
Cs      22.49321999       6.53686472       4.63033351      -0.00480424      -0.05520044      -0.05688162      -0.39941050      -1.67461704      -1.10702899
Cs      34.30757162       4.52853540       2.38633842      -0.11234640       0.00666414      -0.19969913       0.62915087      -0.97235941      -1.79986573
Cs      25.27094170       1.06238261       9.28551261      -0.00015417       0.12922105       0.07524669       0.18889679      -0.08331103       0.26457800
Cs      31.27519305       9.62354478       6.89927068       0.15178247       0.19051999       0.30580121       1.25872042      -1.06076411      -0.30355344
Cs      22.48002308       6.46386167       9.34601523       0.00987199       0.10369333       0.04555708      -4.05198659       0.96835939       0.11874458
Cs      34.13688145       4.45103242       6.98960119       0.06569736       0.17959491       0.12041714      -0.34690392      -0.87740368      -1.50646847
Pb      20.38766194       2.00297712       2.22201098      -0.04654971      -0.10625697       0.11042496      -2.18308282      -0.91472447      -0.54179298
Pb       0.32721862       9.37406880       4.91109180      -0.01631156       0.35715364      -0.10139046      -1.04654443       1.65968329       1.11259664
Pb      27.14158667       7.37156033       2.36585388       0.09616065      -0.53829538      -0.55445997      -1.14746172      -4.40995818       0.07400242
Pb      29.62271581       3.78913844       4.51828516      -0.38992032      -0.15460166       0.04949657      -0.29004052       1.18229370       0.83812694
Pb      20.44725301       2.21629605       7.06301458      -0.36204885      -0.33098961      -0.02096018      -1.06977326      -1.88046291      -4.97828512
Pb       0.29414467       9.41407278       9.68212002       0.10034239       0.35457377      -0.05306591       0.27271633       2.71190214      -0.82987179
Pb      27.39133574       7.09726341       6.93826193      -0.13553334      -0.05138004       0.39478292      -0.25161270      -1.49606615      -3.43312284
Pb      29.40760702       3.77490907       9.40069844       0.08742460      -0.21326766       0.07901601       1.24223794       1.02516035       0.70525994
I       19.39016234       4.15964679       4.67244973       0.11417047      -0.25524424      -0.14546908       0.60094638      -1.09704029       1.12027444
I       19.44814894       7.50223544       2.30905082      -0.01556287      -0.11633361      -0.13710618      -1.04945762       0.44858353       0.00797317
I       28.42273490       9.04896463       4.53674868      -0.06187386       0.06238432       0.09692943      -1.92337324      -2.47283000       1.50189257
I       28.37624702       1.81517515       2.26192974      -0.04312780       0.20937321      -0.15477860       0.19511380      -3.03006788      -0.11947368
I       35.16852507       0.66503767       2.21741731       0.01501424      -0.19433488       0.05791364       0.36443024       0.13580866       0.32475506
I       21.38137467      10.51035545       4.73098813      -0.02055378       0.07809370       0.08682070       0.69978248      -0.10520981       0.50997142
I       30.43953769       5.76389919       2.09190827      -0.35872107       0.07370688       0.09572878       0.71084347      -0.61015298      -1.25622296
I       26.33244964       5.06953418       4.66126422       0.07388462       0.15725699      -0.11967824       0.17390031      -0.22607605      -0.66341067
I       23.11461086       3.37939067       1.98312247       0.17097192       0.19989734       0.15476160       2.11656461       1.73256801       1.26076945
I       33.33600604       7.61322947       4.43018462       0.11430677      -0.15237205       0.20033868       0.20466611      -0.44190064       1.13223774
I       24.39605521       8.78633711       2.08280870       0.15425837      -0.08135158       0.12691646       0.54437938      -1.99389876      -1.50177638
I       32.16961355       2.13755160       4.75988772       0.04908573       0.10282604      -0.09844309       1.14926985       0.67659033       0.08873900
I       19.40789362       3.93246622       9.63853198      -0.12490812       0.16518764      -0.15977425       0.50538185      -0.65899425       0.65286471
I       19.22920387       7.36712119       7.16891441       0.10920470      -0.14502250      -0.01074299       0.52849229       1.01664500      -1.01720200