320
Lattice="25.121854697261806 -0.05977452525107978 -0.12957468506993428 0.07192418218408468 24.82535238426277 -0.21579304325525844 0.12447059888337542 -0.778188195725328 24.81728374174729" Properties=species:S:1:pos:R:3:forces:R:3:momenta:R:3 pbc="T T T"
Cs       9.55244073      15.38310209       6.47064996      -0.06114258       0.10965260      -0.14342203       0.32737432       0.66935263       3.11402589
Cs       3.49692714      10.32382256       5.55290282      -0.06776119      -0.07062531      -0.00505603       0.10367487      -1.01820764      -0.44779568
Cs       3.08785244      10.44378857      12.04760714       0.09552437      -0.13885378       0.14931844      -2.02684138       0.07535015      -0.95961094
Cs       9.59860581      15.70051283      12.78668022      -0.00133201      -0.08207200       0.15476027      -0.54320682      -1.73815707      -0.68752005
Cs       9.52558750       9.36960044      12.71073751       0.14093314      -0.06308211      -0.06004968      -0.22229794      -1.68348531      -2.50859862
Cs       3.23571492      16.26216423      11.96902033       0.02116444      -0.05596775      -0.04863304      -0.67091876      -0.18639915      -1.08483745
Cs       3.24138132      16.81388467       5.91523849      -0.01919391       0.02791854      -0.04915960      -1.59100191       1.83918791      -0.68170063
Cs       9.46187104       9.39508069       7.16818747       0.02069253       0.15280957      -0.10760271      -0.35005425      -0.26315030      -0.62050493
Pb       0.21661593       6.46990894       9.31379185      -0.11929455       0.01777056       0.08726529       1.46442034       4.25219515       2.51278423
Pb       6.22273256      12.92697442       9.10661168       0.27516196       0.05335639       0.35521168      -2.31295589       0.56786220       1.13010179
Pb      25.14986308      12.67871530       9.22317823      -0.09648402       0.11056401       0.00962736      -0.71550577       3.02001736      -1.68307451
Pb       6.43621388       6.70803945       9.19149864      -0.29855340       0.02978765       0.15219952       0.61602988       2.74416908       0.53208645
Pb      25.06848814       7.05809193       3.13719434       0.25770237      -0.34349750      -0.07125104       3.35222030      -0.46842766       0.89481325
Pb       6.52933804      13.17268776       2.97737423       0.09587762       0.21466471       0.04483633       1.57838841      -1.10151258      -0.44201762
Pb       0.34430093      13.21843692       3.32948667      -0.27919815       0.18668203      -0.19406520      -0.72454808      -0.75003460       0.64957613
Pb       6.32387266       7.10853874       2.92945380      -0.01548656      -0.49635568       0.10736520      -2.92794550      -2.90146884       0.99104152
I       25.06902524       9.58526179       9.79773792      -0.27186820      -0.03569893       0.20523587      -0.23135486      -1.11048631      -0.10783238
I        5.95553578      15.97098784       8.38619547      -0.05775451       0.24157261       0.14884211       1.14495848      -0.79952646       3.79472952
I       13.24892297      15.75769646       8.63637920       0.01001523       0.18001178      -0.11084432       0.05832911       1.22144903       0.05631575
I        6.80672341       9.89050593       9.99574657      -0.01899893      -0.29412255      -0.02461652      -2.52204244       0.53416296       0.00008234
I        9.49832238      13.51290951       9.77693804      -0.02240028      -0.20980010      -0.07120231       1.75209265      -2.72981710       1.06928269
I        3.19844801      19.47602948       9.78463412       0.19257186       0.00010359      -0.00877500       0.89998562      -1.92596563       2.06569618
I        3.21742078      12.19326369       8.80044513      -0.05863381       0.11965478      -0.05917007       0.30166310       0.50982341      -0.17443646
I        9.38705177       6.14370970       9.07668104       0.37037352      -0.09286375      -0.09818075       0.49954461      -0.47404961      -0.19836716
I       12.11917525      16.26925663       3.66976796       0.04024330       0.09013467       0.06467077      -0.34740914       0.35787079       1.50290166
I        5.92688105      10.02261492       2.30554009      -0.10694066       0.13328060      -0.10043920       2.52748840       1.35278807      -1.00672535
I        0.70752565       9.71322629      15.14937206       0.07800297      -0.02213926      -0.23397813      -1.16148938       0.25446527       1.44278079
I        6.69187629      15.84597306      16.14890209       0.23014592       0.13908258      -0.03465176       1.70046932       1.10901394       1.36039408
I        3.53168832      13.29808267      16.11293187      -0.34502672      -0.03807188       0.00082633       1.40763055       0.50764313       2.16758461
I        9.58234604       7.28102347      16.09970138      -0.04976277      -0.03098436      -0.09643782       0.80210985      -0.77948219       0.21344961
I        9.64362647      12.83505558       2.60798733       0.14919197       0.01426683      -0.00963824       0.94869633       0.01212898      -1.80580024
I        3.26321884      18.75605760       2.64216447      -0.11461570       0.15593302       0.03324664       0.09191922      -1.12533857       0.62454934
I       24.91493052      18.28115600      12.19545686      -0.03009309       0.12975608       0.21119827       1.49298105      -1.75318881      -0.53715961
I        5.83840305      13.47141296      12.47026008       0.04666377       0.01310093      -0.31332531      -1.07095608      -0.83677707       0.67156915
I       13.34081073       7.56066500       6.27394142      -0.07964958      -0.03964792      -0.12393847      -1.39616973       2.83076506       0.64994336
I        7.01074863      12.45432843       6.19490699       0.04787318      -0.21236707      -0.06438490      -1.37259896      -0.94542517       1.15318807
I       24.62616055      12.13109111       6.04448445       0.03528332       0.00842782       0.28533672      -1.34537667       2.02416261       1.09946376
I        6.05589721      19.89538133       5.96492595      -0.04565977       0.05840080       0.36614433       0.62554549      -0.14821103      -1.08631082
I       13.04642141      13.40405965      12.41855566       0.10847923      -0.00260866      -0.10322001       1.11429415      -0.89667792      -1.05984550
I        6.95041158       5.94361022      12.36172374      -0.05605031       0.04182649      -0.24404299       0.70699123       0.69603184       0.44886749
Cs       9.61467603      14.99400799      18.87929183      -0.06114258       0.10965260      -0.14342203       0.32737432       0.66935263       3.11402589
Cs       3.55916244       9.93472846      17.96154469      -0.06776119      -0.07062531      -0.00505603       0.10367487      -1.01820764      -0.44779568
Cs       3.15008774      10.05469447      24.45624901       0.09552437      -0.13885378       0.14931844      -2.02684138       0.07535015      -0.95961094
Cs       9.53637051      16.08960693       0.37803835      -0.00133201      -0.08207200       0.15476027      -0.54320682      -1.73815707      -0.68752005
Cs       9.46335220       9.75869454       0.30209564       0.14093314      -0.06308211      -0.06004968      -0.22229794      -1.68348531      -2.50859862
Cs       3.29795022      15.87307013      24.37766220       0.02116444      -0.05596775      -0.04863304      -0.67091876      -0.18639915      -1.08483745
Cs       3.30361662      16.42479057      18.32388036      -0.01919391       0.02791854      -0.04915960      -1.59100191       1.83918791      -0.68170063
Cs       9.52410634       9.00598659      19.57682934       0.02069253       0.15280957      -0.10760271      -0.35005425      -0.26315030      -0.62050493
Pb       0.27885123       6.08081484      21.72243372      -0.11929455       0.01777056       0.08726529       1.46442034       4.25219515       2.51278423
Pb       6.28496786      12.53788032      21.51525355       0.27516196       0.05335639       0.35521168      -2.31295589       0.56786220       1.13010179
Pb      25.21209838      12.28962121      21.63182011      -0.09648402       0.11056401       0.00962736      -0.71550577       3.02001736      -1.68307451
Pb       6.49844918       6.31894535      21.60014051      -0.29855340       0.02978765       0.15219952       0.61602988       2.74416908       0.53208645
Pb      25.13072344       6.66899784      15.54583622       0.25770237      -0.34349750      -0.07125104       3.35222030      -0.46842766       0.89481325
Pb       6.59157334      12.78359366      15.38601610       0.09587762       0.21466471       0.04483633       1.57838841      -1.10151258      -0.44201762
Pb       0.40653623      12.82934282      15.73812854      -0.27919815       0.18668203      -0.19406520      -0.72454808      -0.75003460       0.64957613
Pb       6.38610796       6.71944464      15.33809567      -0.01548656      -0.49635568       0.10736520      -2.92794550      -2.90146884       0.99104152
I       25.13126054       9.19616770      22.20637980      -0.27186820      -0.03569893       0.20523587      -0.23135486      -1.11048631      -0.10783238
I        6.01777108      15.58189374      20.79483734      -0.05775451       0.24157261       0.14884211       1.14495848      -0.79952646       3.79472952
I       13.31115827      15.36860236      21.04502107       0.01001523       0.18001178      -0.11084432       0.05832911       1.22144903       0.05631575
I        6.86895871       9.50141183      22.40438844      -0.01899893      -0.29412255      -0.02461652      -2.52204244       0.53416296       0.00008234
I        9.56055768      13.12381541      22.18557991      -0.02240028      -0.20980010      -0.07120231       1.75209265      -2.72981710       1.06928269
I        3.26068331      19.08693538      22.19327599       0.19257186       0.00010359      -0.00877500       0.89998562      -1.92596563       2.06569618
I        3.27965608      11.80416959      21.20908700      -0.05863381       0.11965478      -0.05917007       0.30166310       0.50982341      -0.17443646
I        9.44928707       5.75461560      21.48532291       0.37037352      -0.09286375      -0.09818075       0.49954461      -0.47404961      -0.19836716
I       12.18141055      15.88016253      16.07840983       0.04024330       0.09013467       0.06467077      -0.34740914       0.35787079       1.50290166
I        5.98911635       9.63352082      14.71418196      -0.10694066       0.13328060      -0.10043920       2.52748840       1.35278807      -1.00672535
I        0.64529035      10.10232039       2.74073019       0.07800297      -0.02213926      -0.23397813      -1.16148938       0.25446527       1.44278079
I        6.62964099      16.23506716       3.74026022       0.23014592       0.13908258      -0.03465176       1.70046932       1.10901394       1.36039408
I        3.46945302      13.68717677       3.70429000      -0.34502672      -0.03807188       0.00082633       1.40763055       0.50764313       2.16758461
I        9.52011074       7.67011757       3.69105951      -0.04976277      -0.03098436      -0.09643782       0.80210985      -0.77948219       0.21344961
I        9.70586177      12.44596148      15.01662920       0.14919197       0.01426683      -0.00963824       0.94869633       0.01212898      -1.80580024
I        3.32545414      18.36696350      15.05080634      -0.11461570       0.15593302       0.03324664       0.09191922      -1.12533857       0.62454934
I       24.85269522      18.67025010      -0.21318501      -0.03009309       0.12975608       0.21119827       1.49298105      -1.75318881      -0.53715961
I        5.77616775      13.86050706       0.06161821       0.04666377       0.01310093      -0.31332531      -1.07095608      -0.83677707       0.67156915
I       13.40304603       7.17157090      18.68258329      -0.07964958      -0.03964792      -0.12393847      -1.39616973       2.83076506       0.64994336
I        7.07298393      12.06523433      18.60354886       0.04787318      -0.21236707      -0.06438490      -1.37259896      -0.94542517       1.15318807
I       24.68839585      11.74199702      18.45312633       0.03528332       0.00842782       0.28533672      -1.34537667       2.02416261       1.09946376
I        6.11813251      19.50628723      18.37356782      -0.04565977       0.05840080       0.36614433       0.62554549      -0.14821103      -1.08631082
I       12.98418611      13.79315375       0.00991379       0.10847923      -0.00260866      -0.10322001       1.11429415      -0.89667792      -1.05984550
I        6.88817628       6.33270432      -0.04691813      -0.05605031       0.04182649      -0.24404299       0.70699123       0.69603184       0.44886749
Cs       9.51647864       2.97042590       6.57854648      -0.06114258       0.10965260      -0.14342203       0.32737432       0.66935263       3.11402589
Cs       3.53288923      22.73649875       5.44500630      -0.06776119      -0.07062531      -0.00505603       0.10367487      -1.01820764      -0.44779568
Cs       3.12381453      22.85646476      11.93971062       0.09552437      -0.13885378       0.14931844      -2.02684138       0.07535015      -0.95961094
Cs       9.56264372       3.28783664      12.89457674      -0.00133201      -0.08207200       0.15476027      -0.54320682      -1.73815707      -0.68752005
Cs       9.56154959      21.78227663      12.60284099       0.14093314      -0.06308211      -0.06004968      -0.22229794      -1.68348531      -2.50859862
Cs       3.19975283       3.84948804      12.07691685       0.02116444      -0.05596775      -0.04863304      -0.67091876      -0.18639915      -1.08483745
Cs       3.20541923       4.40120848       6.02313501      -0.01919391       0.02791854      -0.04915960      -1.59100191       1.83918791      -0.68170063
Cs       9.49783313      21.80775688       7.06029095       0.02069253       0.15280957      -0.10760271      -0.35005425      -0.26315030      -0.62050493
Pb       0.25257802      18.88258513       9.20589533      -0.11929455       0.01777056       0.08726529       1.46442034       4.25219515       2.51278423
Pb       6.18677047       0.51429823       9.21450820       0.27516196       0.05335639       0.35521168      -2.31295589       0.56786220       1.13010179
Pb      25.11390099       0.26603911       9.33107476      -0.09648402       0.11056401       0.00962736      -0.71550577       3.02001736      -1.68307451
Pb       6.47217597      19.12071564       9.08360212      -0.29855340       0.02978765       0.15219952       0.61602988       2.74416908       0.53208645
Pb      25.10445023      19.47076813       3.02929782       0.25770237      -0.34349750      -0.07125104       3.35222030      -0.46842766       0.89481325
Pb       6.49337595       0.76001157       3.08527075       0.09587762       0.21466471       0.04483633       1.57838841      -1.10151258      -0.44201762
Pb       0.30833884       0.80576073       3.43738319      -0.27919815       0.18668203      -0.19406520      -0.72454808      -0.75003460       0.64957613
Pb       6.35983475      19.52121493       2.82155728      -0.01548656      -0.49635568       0.10736520      -2.92794550      -2.90146884       0.99104152
I       25.10498733      21.99793799       9.68984140      -0.27186820      -0.03569893       0.20523587      -0.23135486      -1.11048631      -0.10783238
I        5.91957369       3.55831165       8.49409199      -0.05775451       0.24157261       0.14884211       1.14495848      -0.79952646       3.79472952
I       13.21296088       3.34502027       8.74427572       0.01001523       0.18001178      -0.11084432       0.05832911       1.22144903       0.05631575
I        6.84268550      22.30318212       9.88785005      -0.01899893      -0.29412255      -0.02461652      -2.52204244       0.53416296       0.00008234
I        9.46236029       1.10023332       9.88483456      -0.02240028      -0.20980010      -0.07120231       1.75209265      -2.72981710       1.06928269
I        3.16248592       7.06335329       9.89253064       0.19257186       0.00010359      -0.00877500       0.89998562      -1.92596563       2.06569618
I        3.18145869      -0.21941250       8.90834165      -0.05863381       0.11965478      -0.05917007       0.30166310       0.50982341      -0.17443646
I        9.42301386      18.55638589       8.96878452       0.37037352      -0.09286375      -0.09818075       0.49954461      -0.47404961      -0.19836716
I       12.08321316       3.85658044       3.77766448       0.04024330       0.09013467       0.06467077      -0.34740914       0.35787079       1.50290166
I        5.96284314      22.43529111       2.19764357      -0.10694066       0.13328060      -0.10043920       2.52748840       1.35278807      -1.00672535
I        0.74348774      22.12590248      15.04147554       0.07800297      -0.02213926      -0.23397813      -1.16148938       0.25446527       1.44278079
I        6.65591420       3.43329687      16.25679861       0.23014592       0.13908258      -0.03465176       1.70046932       1.10901394       1.36039408
I        3.49572623       0.88540648      16.22082839      -0.34502672      -0.03807188       0.00082633       1.40763055       0.50764313       2.16758461
I        9.61830813      19.69369966      15.99180486      -0.04976277      -0.03098436      -0.09643782       0.80210985      -0.77948219       0.21344961
I        9.60766438       0.42237939       2.71588385       0.14919197       0.01426683      -0.00963824       0.94869633       0.01212898      -1.80580024
I        3.22725675       6.34338141       2.75006099      -0.11461570       0.15593302       0.03324664       0.09191922      -1.12533857       0.62454934
I       24.87896843       5.86847981      12.30335339      -0.03009309       0.12975608       0.21119827       1.49298105      -1.75318881      -0.53715961
I        5.80244096       1.05873677      12.57815660       0.04666377       0.01310093      -0.31332531      -1.07095608      -0.83677707       0.67156915
I       13.37677282      19.97334119       6.16604490      -0.07964958      -0.03964792      -0.12393847      -1.39616973       2.83076506       0.64994336
I        6.97478654       0.04165224       6.30280351       0.04787318      -0.21236707      -0.06438490      -1.37259896      -0.94542517       1.15318807
I       24.66212264      24.54376731       5.93658793       0.03528332       0.00842782       0.28533672      -1.34537667       2.02416261       1.09946376
I        6.01993512       7.48270514       6.07282247      -0.04565977       0.05840080       0.36614433       0.62554549      -0.14821103      -1.08631082
I       13.01045932       0.99138346      12.52645218       0.10847923      -0.00260866      -0.10322001       1.11429415      -0.89667792      -1.05984550
I        6.98637367      18.35628641      12.25382722      -0.05605031       0.04182649      -0.24404299       0.70699123       0.69603184       0.44886749
Cs       9.57871394       2.58133180      18.98718835      -0.06114258       0.10965260      -0.14342203       0.32737432       0.66935263       3.11402589
Cs       3.59512453      22.34740465      17.85364817      -0.06776119      -0.07062531      -0.00505603       0.10367487      -1.01820764      -0.44779568
Cs       3.18604983      22.46737066      24.34835249       0.09552437      -0.13885378       0.14931844      -2.02684138       0.07535015      -0.95961094
Cs       9.50040842       3.67693074       0.48593487      -0.00133201      -0.08207200       0.15476027      -0.54320682      -1.73815707      -0.68752005
Cs       9.49931429      22.17137073       0.19419912       0.14093314      -0.06308211      -0.06004968      -0.22229794      -1.68348531      -2.50859862
Cs       3.26198813       3.46039394      24.48555872       0.02116444      -0.05596775      -0.04863304      -0.67091876      -0.18639915      -1.08483745
Cs       3.26765453       4.01211438      18.43177688      -0.01919391       0.02791854      -0.04915960      -1.59100191       1.83918791      -0.68170063
Cs       9.56006843      21.41866278      19.46893282       0.02069253       0.15280957      -0.10760271      -0.35005425      -0.26315030      -0.62050493
Pb       0.31481332      18.49349103      21.61453720      -0.11929455       0.01777056       0.08726529       1.46442034       4.25219515       2.51278423
Pb       6.24900577       0.12520413      21.62315007       0.27516196       0.05335639       0.35521168      -2.31295589       0.56786220       1.13010179
Pb      25.17613629      -0.12305499      21.73971663      -0.09648402       0.11056401       0.00962736      -0.71550577       3.02001736      -1.68307451
Pb       6.53441127      18.73162154      21.49224399      -0.29855340       0.02978765       0.15219952       0.61602988       2.74416908       0.53208645
Pb      25.16668553      19.08167403      15.43793969       0.25770237      -0.34349750      -0.07125104       3.35222030      -0.46842766       0.89481325
Pb       6.55561125       0.37091747      15.49391262       0.09587762       0.21466471       0.04483633       1.57838841      -1.10151258      -0.44201762
Pb       0.37057414       0.41666663      15.84602506      -0.27919815       0.18668203      -0.19406520      -0.72454808      -0.75003460       0.64957613
Pb       6.42207005      19.13212083      15.23019915      -0.01548656      -0.49635568       0.10736520      -2.92794550      -2.90146884       0.99104152
I       25.16722263      21.60884389      22.09848327      -0.27186820      -0.03569893       0.20523587      -0.23135486      -1.11048631      -0.10783238
I        5.98180899       3.16921755      20.90273386      -0.05775451       0.24157261       0.14884211       1.14495848      -0.79952646       3.79472952
I       13.27519618       2.95592617      21.15291759       0.01001523       0.18001178      -0.11084432       0.05832911       1.22144903       0.05631575
I        6.90492080      21.91408802      22.29649192      -0.01899893      -0.29412255      -0.02461652      -2.52204244       0.53416296       0.00008234
I        9.52459559       0.71113922      22.29347643      -0.02240028      -0.20980010      -0.07120231       1.75209265      -2.72981710       1.06928269
I        3.22472122       6.67425919      22.30117251       0.19257186       0.00010359      -0.00877500       0.89998562      -1.92596563       2.06569618
I        3.24369399      -0.60850660      21.31698352      -0.05863381       0.11965478      -0.05917007       0.30166310       0.50982341      -0.17443646
I        9.48524916      18.16729179      21.37742639       0.37037352      -0.09286375      -0.09818075       0.49954461      -0.47404961      -0.19836716
I       12.14544846       3.46748634      16.18630635       0.04024330       0.09013467       0.06467077      -0.34740914       0.35787079       1.50290166
I        6.02507844      22.04619701      14.60628544      -0.10694066       0.13328060      -0.10043920       2.52748840       1.35278807      -1.00672535
I        0.68125244      22.51499658       2.63283367       0.07800297      -0.02213926      -0.23397813      -1.16148938       0.25446527       1.44278079
I        6.59367890       3.82239097       3.84815674       0.23014592       0.13908258      -0.03465176       1.70046932       1.10901394       1.36039408
I        3.43349093       1.27450058       3.81218652      -0.34502672      -0.03807188       0.00082633       1.40763055       0.50764313       2.16758461
I        9.55607283      20.08279376       3.58316299      -0.04976277      -0.03098436      -0.09643782       0.80210985      -0.77948219       0.21344961
I        9.66989968       0.03328529      15.12452572       0.14919197       0.01426683      -0.00963824       0.94869633       0.01212898      -1.80580024
I        3.28949205       5.95428731      15.15870286      -0.11461570       0.15593302       0.03324664       0.09191922      -1.12533857       0.62454934
I       24.81673313       6.25757391      -0.10528848      -0.03009309       0.12975608       0.21119827       1.49298105      -1.75318881      -0.53715961
I        5.74020566       1.44783087       0.16951473       0.04666377       0.01310093      -0.31332531      -1.07095608      -0.83677707       0.67156915
I       13.43900812      19.58424709      18.57468677      -0.07964958      -0.03964792      -0.12393847      -1.39616973       2.83076506       0.64994336
I        7.03702184      -0.34744186      18.71144538       0.04787318      -0.21236707      -0.06438490      -1.37259896      -0.94542517       1.15318807
I       24.72435794      24.15467321      18.34522980       0.03528332       0.00842782       0.28533672      -1.34537667       2.02416261       1.09946376
I        6.08217042       7.09361104      18.48146434      -0.04565977       0.05840080       0.36614433       0.62554549      -0.14821103      -1.08631082
I       12.94822402       1.38047756       0.11781031       0.10847923      -0.00260866      -0.10322001       1.11429415      -0.89667792      -1.05984550
I        6.92413837      18.74538051      -0.15481465      -0.05605031       0.04182649      -0.24404299       0.70699123       0.69603184       0.44886749
Cs      22.11336808      15.35321483       6.40586262      -0.06114258       0.10965260      -0.14342203       0.32737432       0.66935263       3.11402589
Cs      16.05785449      10.29393530       5.48811548      -0.06776119      -0.07062531      -0.00505603       0.10367487      -1.01820764      -0.44779568
Cs      15.64877979      10.41390131      11.98281980       0.09552437      -0.13885378       0.14931844      -2.02684138       0.07535015      -0.95961094
Cs      22.15953316      15.67062557      12.72189288      -0.00133201      -0.08207200       0.15476027      -0.54320682      -1.73815707      -0.68752005
Cs      22.08651485       9.33971318      12.64595017       0.14093314      -0.06308211      -0.06004968      -0.22229794      -1.68348531      -2.50859862
Cs      15.79664227      16.23227697      11.90423299       0.02116444      -0.05596775      -0.04863304      -0.67091876      -0.18639915      -1.08483745
Cs      15.80230867      16.78399741       5.85045115      -0.01919391       0.02791854      -0.04915960      -1.59100191       1.83918791      -0.68170063
Cs      22.02279839       9.36519343       7.10340013       0.02069253       0.15280957      -0.10760271      -0.35005425      -0.26315030      -0.62050493
Pb      12.77754328       6.44002168       9.24900451      -0.11929455       0.01777056       0.08726529       1.46442034       4.25219515       2.51278423
Pb      18.78365991      12.89708716       9.04182434       0.27516196       0.05335639       0.35521168      -2.31295589       0.56786220       1.13010179
Pb      12.58893573      12.70860257       9.28796558      -0.09648402       0.11056401       0.00962736      -0.71550577       3.02001736      -1.68307451
Pb      18.99714123       6.67815219       9.12671130      -0.29855340       0.02978765       0.15219952       0.61602988       2.74416908       0.53208645
Pb      12.50756079       7.08797920       3.20198169       0.25770237      -0.34349750      -0.07125104       3.35222030      -0.46842766       0.89481325
Pb      19.09026539      13.14280050       2.91258689       0.09587762       0.21466471       0.04483633       1.57838841      -1.10151258      -0.44201762
Pb      12.90522828      13.18854966       3.26469933      -0.27919815       0.18668203      -0.19406520      -0.72454808      -0.75003460       0.64957613
Pb      18.88480001       7.07865148       2.86466646      -0.01548656      -0.49635568       0.10736520      -2.92794550      -2.90146884       0.99104152
I       12.50809789       9.61514906       9.86252527      -0.27186820      -0.03569893       0.20523587      -0.23135486      -1.11048631      -0.10783238
I       18.51646313      15.94110058       8.32140813      -0.05775451       0.24157261       0.14884211       1.14495848      -0.79952646       3.79472952
I        0.68799562      15.78758372       8.70116654       0.01001523       0.18001178      -0.11084432       0.05832911       1.22144903       0.05631575
I       19.36765076       9.86061867       9.93095923      -0.01899893      -0.29412255      -0.02461652      -2.52204244       0.53416296       0.00008234
I       22.05924973      13.48302225       9.71215070      -0.02240028      -0.20980010      -0.07120231       1.75209265      -2.72981710       1.06928269
I       15.75937536      19.44614222       9.71984678       0.19257186       0.00010359      -0.00877500       0.89998562      -1.92596563       2.06569618
I       15.77834813      12.16337643       8.73565779      -0.05863381       0.11965478      -0.05917007       0.30166310       0.50982341      -0.17443646
I       21.94797912       6.11382244       9.01189370       0.37037352      -0.09286375      -0.09818075       0.49954461      -0.47404961      -0.19836716
I       24.68010260      16.23936937       3.60498062       0.04024330       0.09013467       0.06467077      -0.34740914       0.35787079       1.50290166
I       18.48780840       9.99272766       2.24075275      -0.10694066       0.13328060      -0.10043920       2.52748840       1.35278807      -1.00672535
I       13.26845300       9.68333903      15.08458472       0.07800297      -0.02213926      -0.23397813      -1.16148938       0.25446527       1.44278079
I       19.25280364      15.81608580      16.08411475       0.23014592       0.13908258      -0.03465176       1.70046932       1.10901394       1.36039408
I       16.09261567      13.26819541      16.04814453      -0.34502672      -0.03807188       0.00082633       1.40763055       0.50764313       2.16758461
I       22.14327339       7.25113621      16.03491404      -0.04976277      -0.03098436      -0.09643782       0.80210985      -0.77948219       0.21344961