320
Lattice="31.392636507215773 -0.04481615214523286 0.09492011689125937 0.1392903615087138 28.887165468702893 0.25788863917263216 -0.2799812260619887 -0.14238296324623026 16.953981605175922" Properties=species:S:1:pos:R:3:forces:R:3:momenta:R:3 energy=-980.7224823642878 stress="0.0 0.0 0.0 0.0 0.0 0.0 0.0 0.0 0.0" pbc="T T T"
Cs       0.77882014       3.49469818       3.35817879       0.10709039       0.06325558       0.09361762       0.97029387       1.21535359      -1.07274740
Cs       5.16710692       6.49344377       8.17000381       0.02607048      -0.10175995      -0.08159539       0.45225793      -0.66207628       1.15822002
Cs       1.29848528      11.19066140      16.20820331       0.10244395      -0.04010915      -0.01682955       1.06425361      -1.26231690       0.19902450
Cs       5.02948008      13.69846801       3.59363986       0.12654829       0.14394283      -0.03392388      -1.94644754       1.46995927       1.08443637
Cs       9.30409970       3.99853063       3.60439088      -0.04694126      -0.03633633       0.00956675      -0.41048295       0.73455676      -1.55993592
Cs      13.29819293       6.39834222       7.70285780      -0.02773262       0.08217788       0.13730524      -0.40443591       0.65292442      -0.45979025
Cs       9.05383233      11.28704195      16.47014483      -0.03008078      -0.12794272      -0.01426040      -0.61160904       0.44762162      -1.21811571
Cs      13.14869792      13.50938298       3.52713181      -0.02739553       0.05758121      -0.00747361      -0.34214269       2.23390000       0.33707938
Pb       2.69839417      16.06011069       7.67166021       0.08962340       0.13195717       0.10657529       0.24902982      -0.70979978      -1.88976898
Pb       6.64356311      16.34206709       7.92008335      -0.24206511       0.00556843       0.03415714       0.34552616       0.69196458       1.82288518
Pb       4.18759672       8.67541075       3.50435158      -0.28078404      -0.21872133      -0.05333454      -0.71714290       0.59736433      -1.52202373
Pb       0.09170912       8.97895380       3.48515729       0.04059394      -0.33238026      -0.24688181       1.17332538       2.60837222       5.79244272
Pb      10.61090589      16.05822989       7.71233302       0.03227524       0.15516376       0.18157616      -2.33791904       1.75006518       2.07631482
Pb      14.35347437      15.82775348       7.73302261       0.30416494       0.46781382       0.35267380       3.14023302       0.75737498      -1.70498040
Pb      11.97900045       8.85192893       3.97017770      -0.36500659      -0.30266134      -0.49980845       0.88794413       3.12418537       0.45612513
Pb       7.92381477       8.77046913       3.79821945       0.30817745      -0.31484612      -0.33083998      -1.18949493      -1.37613601       2.73908876
I        4.83636097       2.62325912       1.62413310      -0.33604076       0.04161614      -0.04816625      -0.17087953       2.25449639       0.95397476
I        2.17564630       7.78734759       1.13331606      -0.14232143       0.01794971       0.17867023       0.60048996      -1.95270171       0.26458514
I        4.62910456       2.98348451       5.53623917      -0.25058274       0.04184467       0.00967453      -1.29716000       0.12257229      -1.02042303
I        2.12090478       7.31994337       5.56883669      -0.19311988       0.10396678      -0.14168101      -0.46536052       0.75416741      -0.29714358
I        6.18541576       6.13148762       3.17565542      -0.13323285       0.00695403       0.11539403       1.09044187      -1.26652021      -0.84559467
I        0.68913727       4.03172962       7.64821069       0.00687441      -0.27395241       0.04066692      -0.30258210       0.03129493       0.39343385
I        5.98231253       9.83336392       5.95665204      -0.10821642       0.14792221       0.22588266      -0.94479780       0.57970354       3.00514871
I        0.80288422      14.68795030       5.45799278      -0.25968235      -0.11548950      -0.04101389      -1.81266139       0.28298677      -0.31190201
I        6.17743459      10.11527990       1.46669223       0.11857999       0.01674840       0.13085420      -0.21255609       1.67871177      -0.72884041
I        1.00778799      14.48181646       1.44396088       0.00027472      -0.05738387       0.20538223      -1.56476590      -0.55571765      -0.95587823
I        4.90250410      13.54220188       7.75670419      -0.19583860       0.16146089       0.01768280      -1.13386595       0.61946417       1.27112119
I        2.35763174      11.30166390       3.51843350      -0.22960583      -0.01524436       0.10945281      -3.21018145      -0.83692192      -1.15030717
I       12.60059953       2.94429581       1.60127437      -0.04823149       0.14924296       0.18697985      -1.03564763      -0.19039564       0.20011946
I       10.06692316       7.73799474       1.53394477       0.04759950      -0.05146053       0.11429081       0.18116573      -1.01252218       2.82191447
I       12.55642745       2.87719579       5.64213896       0.06911459      -0.05740615      -0.02695830      -1.90619919       2.23834907      -0.90487850
I       10.17244473       7.28946047       5.92907574      -0.27785590       0.05391947       0.11049848       0.92151569       0.15088159       0.83928592
I       14.05679117       6.20830043       3.57069487      -0.13181683       0.05197363       0.08426145       0.24358132       0.80205420      -0.04976084
I        8.39090911       4.10471138       7.52175130       0.03109133       0.34761945       0.18666094       0.62168259       0.19724716       1.05881990
I       13.99441182      10.14035392       5.85573618       0.09883642       0.14163912       0.46842939      -0.83640227       1.06215492       0.62241585
I        8.20830342      15.05266799       5.55242554       0.18390591       0.01198663       0.12737639      -0.63357680      -1.12433141       0.91267022
I       13.83705475      10.06795027       1.67768203       0.05032627       0.32395409      -0.46589431      -1.09792154      -2.87438426      -1.09301949
I        8.65909983      14.68384924       1.61659473      -0.04603456      -0.03012651       0.19090003       2.63301883       3.03940938       0.39981571
I       12.50495988      13.40033807       7.99918518      -0.31596604      -0.16780299      -0.22501534       1.48613370       0.01507115      -2.25617047
I        9.80691079      11.24245001       3.86217750       0.26099020       0.38049165       0.15001840       0.05933396       1.14906400       1.25006905
Cs       0.77401429       3.67922688      12.00459114       0.00433217      -0.04700303      -0.05697637       0.38775938       2.19553544       1.19214693
Cs       5.22551616       6.47533092      16.23034686      -0.05153753       0.01617120      -0.02126814      -1.44664135      -1.29143601      -0.58988442
Cs       1.60800149      11.28211379       7.46693596       0.00256843      -0.05490357       0.11968892      -0.79994484      -1.67394185      -2.75462784
Cs       5.17476988      13.80681821      11.88219910      -0.01558343      -0.01141760       0.09658951       1.91145238      -1.28962558       2.10981136
Cs       8.78168945       3.89630511      12.40867467       0.07645567       0.02357402      -0.13218700       1.72487159       2.14421162       1.45342156
Cs      12.97573918       6.33263196      16.60774827       0.05371807       0.04403671      -0.06051738      -0.09955498      -0.21596899       0.22300726
Cs       9.40280603      10.99997464       8.06378090      -0.08249658       0.00387917       0.01988537       0.21170170       0.69916141       0.99565526
Cs      12.87345887      13.76644031      12.01168512       0.00435884       0.04935278       0.08798556       0.38444212       0.52672843       1.38195844
Pb       2.57574810      15.98771181      16.36237666       0.24723849       0.13474608      -0.20811627       0.96982412       2.01522310       1.63255544
Pb       6.40253105      16.09099527      16.54468595       0.08954308       0.12431679      -0.18345144      -1.28721810       0.58224123      -0.91974835
Pb       3.72946988       8.76551835      12.22123212       0.39113164       0.20688346      -0.18000587       1.32123097      -2.05570666      -3.12231717
Pb       0.06107958       8.91452458      11.89111753      -0.46169950       0.31527365       0.01194500       2.68696508       2.53401556      -1.40889133
Pb      10.32963245      15.91117019      16.48905362       0.30052668       0.16378282      -0.20078372      -1.57144372       2.36109894      -3.45628599
Pb      14.42970485      15.93243255      16.42680631      -0.44397017       0.11588461      -0.19030319       0.81608187      -2.06930007       1.32338264
Pb      11.71317109       8.82582152      12.24699363      -0.27596454      -0.15600786       0.17204470      -0.31339936       1.45933496       1.81542164
Pb       7.65699361       8.67059083      12.19456179      -0.00548694       0.02991192       0.31747509      -0.88076125       0.03171244       3.40588037
I        4.23863871       2.72664739       9.96047138       0.33401332      -0.00673382       0.01027608       1.32600611       0.50296125       1.56490165
I        1.97021604       7.63724543       9.76281131       0.02646361      -0.09529212      -0.24662065       0.69216240      -0.00889181       0.97937240
I        4.28005043       2.86119732      13.94265497       0.21805973      -0.07298512       0.20398102       0.27543074       0.06747595       1.58366866
I        1.74945732       7.35187958      13.99476455      -0.11472799      -0.24108564       0.49603990      -1.35183605       2.14112939      -0.49641396
I        5.61639237       6.09202128      12.29086106       0.19085026       0.16135318      -0.03638685       0.89345427      -0.65065774       1.96359947
I        0.60979484       4.12759758      16.30813974       0.10039515       0.04146581       0.03813382       1.93546439       1.15964519      -2.54820462
I        5.75907913      10.14363378      14.42119787      -0.07276729      -0.08736961      -0.14639874      -0.41005265      -1.59439116       1.58427010
I        0.79811043      14.98662578      13.96887172      -0.21218821      -0.26266594      -0.15601056       1.37699725      -0.89834359      -1.03166243
I        5.81920903       9.94865574       9.97328411       0.06015453       0.15720893      -0.15926853       1.37017126      -0.74833351       0.29924238
I        0.82422502      14.90412765       9.97793184      -0.17726143      -0.29275925       0.09439815      -1.63495551       1.77966119      -0.73531700
I        4.62579250      13.41113134      16.81756871      -0.15383300       0.21776819      -0.20374513       0.61471140      -2.84606755      -0.96311545
I        2.05330336      11.47345850      12.21309640      -0.01684520       0.01160507      -0.07277359       0.47252066      -0.46187676      -1.93402659
I       12.38986318       3.23607881       9.96950003      -0.00347824      -0.12092951       0.08602520      -2.01359715       0.40882084      -0.56554974
I        9.66965745       7.29959048      10.21696310       0.17249642      -0.03852378      -0.23715897      -0.30647221      -1.36524982      -1.27612042
I       12.35520515       2.98056319      14.29361189      -0.03814064       0.10101181      -0.18335986       0.51333993       0.44431103      -1.06646348
I        9.68783578       7.63210238      14.60958330       0.10450404      -0.01127466      -0.22963324      -0.76393073      -0.12798002       0.09992675
I       13.65206682       6.20809175      11.89428638       0.05558715       0.13753524       0.11853552      -0.13635115      -0.11036890      -0.06594714
I        8.13657515       4.05771111      16.47022927       0.19201350       0.16519699       0.01693136      -0.31342462       1.79855230       1.50533541
I       13.84915893      10.07659290      14.43223758      -0.10278953      -0.08735741       0.07822601       0.71876348       2.17020811      -1.81745737
I        8.19587918      14.97770422      14.21397710       0.04921726      -0.31913090      -0.29837081       0.97721080      -1.61433840      -1.28812343
I       13.56038470      10.39085345      10.15756779      -0.01080690      -0.08759704      -0.21915999       1.29043432      -0.30353460       0.31080073
I        8.59611716      14.89452715       9.94176205       0.01673043      -0.24123773       0.27237820      -0.08109371      -2.95472583      -1.23476873
I       12.22489567      13.40414801      16.16813805       0.14661481      -0.16756551       0.02616712      -0.74014453      -0.64134719      -0.21526888
I        9.67928356      11.27485760      12.32665233      -0.08746098       0.10908467      -0.09138966       1.04412668       1.02811173       1.31817634
Cs       1.16047217      18.10646181       3.52862701       0.02639962       0.08295971       0.04008055      -1.16142460      -1.40368817       2.16485107
Cs       5.48450713      20.89876012       8.01054807       0.02867985      -0.03422731      -0.00682635       1.14908504       1.74035215       0.99928493
Cs       1.61577604      25.29353798      16.77906719      -0.08924297      -0.01595062      -0.02524708       1.36167273      -0.59823758       1.67604759
Cs       5.33745492      28.03737294       3.80392083       0.01204801       0.01375692      -0.04737551       0.04255441      -0.46766852      -1.76429170
Cs       9.26849629      18.57363226       3.31531914       0.08372159      -0.03212787       0.10428971       0.28526253       0.90178001      -1.44919585
Cs      13.43317822      21.20240157       7.80088810       0.13243520      -0.08389700       0.05289699       0.10990938       0.54955086       0.19470253
Cs       9.20448025      25.65463463      16.12277300      -0.07804190      -0.01712514       0.11013156       0.77914668      -2.66553912       2.47079559
Cs      12.79836601      28.38791888       3.89019092       0.13173118      -0.02854858       0.06350060      -0.12559329      -0.66451066       0.33095689
Pb       2.73796661       1.41886143       7.66014953      -0.35062604       0.05782178      -0.23559099       0.74718504       1.71303725       2.61062197
Pb       6.52927885       1.66068109       7.70159361       0.12040460      -0.06576721      -0.22838836      -0.86900017      -1.05685702       0.61367686
Pb       4.15982062      23.07843567       3.82124283      -0.06570195       0.20736452      -0.32531799      -1.36126114       1.21782011       0.09973059
Pb       0.25721012      23.17713529       3.77655059      -0.20516976      -0.13356806      -0.03709489       2.10002188       2.26996093       0.85836547
Pb      10.57255489       1.70165060       7.83338051      -0.40638029      -0.06718622      -0.03609731       1.95968394       0.55564533      -2.30972038
Pb      14.37966412       1.42932320       7.97943442       0.19851312      -0.02903652      -0.00189092      -0.76333129       0.22925096      -0.01480940
Pb      11.86281183      23.66661934       3.64769081       0.37173534      -0.30393511       0.31111151      -0.18715979       3.29158775       2.43663882
Pb       8.04431884      23.41662394       3.66613127      -0.12854581      -0.20291388      -0.04108130      -1.01904464      -0.14569699       0.14526674
I        4.58604154      17.53343883       1.61490668       0.07440757       0.14914183       0.39051275       0.72544828      -2.11636778       1.70707853
I        2.26279801      21.67951799       1.62522307      -0.04982604       0.11665379       0.00286831       0.94898563      -2.86358444       1.18852720
I        4.62762583      17.81176756       5.83050685       0.06447998      -0.06078441      -0.17084071       1.61965688      -0.59603745      -0.59604320
I        2.33628658      21.83126906       5.88075136      -0.14964289      -0.20716944       0.43043508      -0.03220356      -0.54429463       0.17255059
I        6.18753408      20.74854443       3.61516260       0.14009444      -0.12285409       0.01742254      -0.49284333       1.33234505      -1.96863640
I        0.62786242      18.65170904       7.67367114      -0.01803001      -0.32540257      -0.01028504      -1.38430638      -3.29861604       2.87026825
I        6.12580401      24.49302071       5.92782942      -0.00251819       0.05174252       0.18153937       0.24897012      -0.28090028       0.91116841
I        0.65763411      -0.05738304       5.36577584      -0.09415726       0.14533581       0.26138385      -0.20038471       0.45565574       1.19402215
I        5.92422779      24.61168942       1.49851778       0.15238430       0.07374050      -0.02394399      -2.19953084      -2.34100226      -0.49222962
I        0.90011689       0.18482028       1.30765277      -0.11087096      -0.08889999       0.27632915      -0.94153614       0.05144867      -1.45942939
I        4.86310746      27.84447765       7.51038087       0.02831938      -0.15965241       0.18783384      -0.89712491       0.34619516      -0.59777356
I        2.13634948      25.64395960       3.92514080       0.19176921       0.13418765      -0.11270926       1.47513284       0.90466528      -2.02920035
I       12.55713779      17.09231279       1.78172550       0.11527818       0.07860191       0.01618685      -1.51475128      -0.99726319      -0.93077498
I       10.06943245      22.31822995       1.38384557       0.02085684       0.00672811       0.02732864       1.18722842      -1.48510755      -1.96759996
I       12.55285088      17.48344001       5.60647870      -0.05880658      -0.04789051       0.06895027      -0.00687457      -0.59743271       0.36691454
I       10.05663872      22.06456146       5.85333533      -0.01887387       0.01096691      -0.08112875       0.43527868       1.11528347      -1.00687930
I       13.77765214      20.93977061       3.43613201       0.13845410       0.14459749       0.03911981       1.14862928      -0.89773703      -1.48105750
I        8.76739254      18.65967159       8.10312251      -0.03039773       0.22194022      -0.00802169      -0.88684008       0.36959909       1.23332271
I       14.08677628      24.95869459       5.95504985       0.07380689      -0.31395770      -0.53337857      -0.43421789       0.73508510       2.32927864
I        8.65349935       0.38018894       5.50455435      -0.13559699       0.14292336       0.29212882      -2.19704275      -2.26975404      -1.12884628
I       13.88980051      24.86093843       1.46537086       0.00868960       0.06886149       0.01138308       0.03301629       0.87401014       1.27664117
I        8.56575155       0.12047066       1.48354510      -0.00440863       0.25457133      -0.35140593      -0.52873749       2.48656917      -0.30926823
I       12.33257562      27.87991445       8.49986074       0.07944741      -0.00914129      -0.11937251       0.55951417      -3.39923390      -0.68421780
I        9.79939546      25.97109463       3.96488082       0.06321789       0.23807251      -0.02903713       0.41963768      -0.20767728      -1.97846541
Cs       1.10580149      18.48426758      11.92275410       0.01651351      -0.08830636       0.06906984      -0.27263514       0.83341052       0.79391791
Cs       5.51406312      20.93705692      16.57242984      -0.02069042      -0.02764354       0.01420480       0.64828899      -0.73559594       0.97770836
Cs       2.09829386      25.23996493       7.76475993      -0.14328527       0.04224762       0.07625045      -1.35039655      -1.00439901       1.44736883
Cs       5.34799974      27.73401239      12.07036684      -0.01273455       0.12570479       0.03010952       0.19082291      -0.30831546      -0.83346773
Cs       9.15200155      18.23913656      12.38919902       0.16497597      -0.04711830      -0.05912892       1.16617022      -0.11044683      -0.90093957
Cs      13.24782704      21.11835796      16.38744881       0.04318730      -0.08864783       0.01781764       1.49215492      -0.70331937       1.06550209
Cs       9.17160200      25.60461087       8.31287708       0.02391161       0.04819761      -0.11246699       0.13175760      -2.82907396       1.88933830
Cs      12.90795723      28.64015437      12.17811309      -0.03011190      -0.14564766       0.04310011      -0.11620447       0.88218197      -2.04600683
Pb       2.58404444       1.45432365      16.18274021      -0.10203261      -0.11019794      -0.07002487       0.47672581       1.20977023       1.30167777
Pb       6.36199448       1.51002582      16.26280262       0.06933171      -0.26277747      -0.17083140       0.70467190       1.76214872      -0.57388743
Pb       4.09499065      22.95580008      12.36978303       0.07355243       0.10821827       0.09504368      -1.55472061      -0.08426013       3.24137276
Pb       0.16793240      23.10616706      12.35883458      -0.41920214      -0.04798380       0.43847778      -0.44985479      -2.06076174      -2.27929156
Pb      10.41993883       1.63765598      16.40809714      -0.54676031      -0.24576255      -0.15903117      -0.28575138      -0.39243713      -3.09491345
Pb      14.36984288       1.54796340      16.36869702       0.03743334       0.06149524      -0.12053774      -0.92346837       0.16612119       1.77942387
Pb      12.06891497      23.53870367      12.29413380       0.03411519      -0.01998299      -0.03154802      -0.19006886      -0.09020602       0.88969318
Pb       8.16647514      23.07748616      12.08533824      -0.07706265       0.06141045       0.22195448       0.38320096       0.14624988       1.59027816
I        4.04079895      17.49267525      10.08127163       0.48019080      -0.06487917      -0.03176166      -1.70240067       0.84768683      -0.34664484
I        2.09689269      21.97645922      10.16217065      -0.18217764      -0.33505575      -0.40984108      -0.28275953       2.21600366      -1.84785466
I        4.60955117      17.45733200      14.24836398      -0.15921096      -0.12632872       0.04958873       0.75715604      -0.92154914      -1.48248751
I        2.26683222      21.57907573      14.48770324      -0.19671572      -0.00963956      -0.02856370      -0.56566833      -0.32394997      -0.32114370
I        6.44058243      20.51372414      12.07422449      -0.38138913       0.05881498      -0.01684737       1.25586786       1.05053787       0.36841880
I        0.36996437      18.49053361      16.44305836       0.21449092      -0.08401680       0.06292139       1.17481880      -2.32456555      -0.75315697
I        6.09510438      24.23014476      14.36569609       0.13870937       0.11401153       0.12864900      -1.38737037      -0.68101747       0.46228241
I        0.19228383       0.18256873      14.14292700       0.32701750       0.00226504      -0.13167478      -1.62035841      -0.22801251       0.15118816
I        5.92221310      24.19944991      10.03933826      -0.03656204       0.32813045      -0.31112289      -0.80104831       1.43502850      -1.47045478
I        0.94631224      -0.10402691      10.06721618      -0.00689389       0.16858480      -0.38217179       1.59681538      -0.12064697       0.53199131
I        4.52674190      27.69673531      16.02576153       0.04833701       0.20310068       0.04754353      -0.02747214       1.59628329       0.62018616
I        2.09389110      25.57518378      12.57333270       0.20189470      -0.16976858       0.01704914       0.95566006       0.14707650       0.55687686
I       12.45383669      17.22686506      10.16182204      -0.06689395      -0.02332026      -0.25603187      -0.76755616      -0.50626804      -2.37589741
I       10.31062412      22.12299025       9.97891933      -0.00151422      -0.05738593      -0.09814292      -2.21194865      -1.80152106       2.05971754
I       12.25395119      17.45182038      14.39383451       0.10011867      -0.06329915       0.00756282      -0.07145343      -1.74407394       0.62967854
I       10.10087149      22.02092826      14.39279531       0.01362226       0.03089258      -0.03320479       0.03144132       1.37243074       1.59057997
I       13.66816231      20.81815764      12.55868795       0.11765525      -0.08071953      -0.17164509       0.60782741       1.08302237       1.21830049
I        8.54646945      18.62743209      16.23131155      -0.13019269      -0.01144971       0.18897106       3.26901840       1.66541873      -1.24714365
I       14.15349654      24.77846183      14.47935985      -0.00429558      -0.03504170      -0.03496371       0.67842245      -0.62343962      -1.44670544
I        8.32670251       0.49133435      13.89157119       0.25963425       0.01624309       0.23333856       2.49017112      -2.03301434       0.76431950
I       14.21349696      24.80174028      10.17801831       0.05119825      -0.17256217       0.10729406       0.27191103      -1.16888277      -0.88127571
I        8.33375054       0.41025202       9.93177428       0.19749940      -0.08254994       0.12233225       0.60710456       2.13102144       0.20030641
I       12.26667811      27.94614753      16.62927657       0.19414293       0.03415960      -0.06728516      -1.82249288      -0.11573333       0.79230438
I        9.88179897      25.90027700      12.26745051      -0.01334956       0.23878666      -0.02524631      -0.83824042       1.89420496      -0.18619228
Cs      17.23344568       3.74655590       3.24611988      -0.09187642       0.10110595       0.12753282       1.99426258      -0.64466582       0.38744655
Cs      21.32342274       6.79495841       7.97950663      -0.07171087      -0.12139460      -0.00095254      -1.64346554      -0.96710777      -2.11828810
Cs      17.13715252      11.03338612      16.52851523       0.00224509       0.03836413      -0.06331961       0.01085383      -2.48773783      -1.34460749
Cs      20.89448329      13.86132539       3.66780929       0.06677720      -0.00824353       0.01445809       0.88183894      -1.06921624       1.29349481
Cs      25.06310705       3.96670034       3.55206685      -0.00961988       0.05475096      -0.00695248       0.56366228       0.08009604       1.18898545
Cs      28.89562076       6.31654855       7.97128542       0.09844929      -0.00731238      -0.00124379      -1.37214063       0.85689079      -0.24799681
Cs      24.50996775      11.12916238      16.63564646       0.08361109       0.03981993      -0.06479937       0.92185958       2.42377807       2.57128225
Cs      28.76662352      13.73550230       3.50017536      -0.02033441       0.01311125       0.01397928      -1.22661251       1.05546634      -0.21164983
Pb      18.30004362      15.71225992       7.93908870      -0.17535178       0.15737624      -0.12891341      -1.83361023       1.36187323      -0.51928152
Pb      22.25032841      16.15195501       8.05056304      -0.15381806      -0.35105632       0.07132751       3.95268274       1.66537152      -0.60061983
Pb      19.80032814       8.84287945       3.63318917      -0.01732610      -0.09329846       0.16154486      -0.30636671      -0.61660999      -1.14044147
Pb      15.86662742       8.78664924       3.63073455       0.17485607      -0.13083441       0.16089539      -4.24839913       2.64879147       0.15891652
Pb      26.15254363      16.16969504       8.05327760       0.21626599       0.00262556      -0.16185012       0.90418302       0.19769350       0.53808632
Pb      30.18922669      15.87077763       7.82471877      -0.10090559       0.45576607      -0.05886525       0.62781392      -0.65472630       0.28749306
Pb      27.59350253       8.96469190       3.49307660       0.10898750       0.01000283      -0.19502862       0.81988096      -0.10688217       0.99042334
Pb      23.78888114       8.76433315       3.76323335      -0.40148832       0.07632384       0.00392600       0.94647075      -2.96741952       0.87023488
I       20.57256227       2.76830276       1.61370761      -0.09094863       0.03033813       0.06298574       0.39519591       0.43761953       1.76175952
I       17.75901662       7.63963315       1.37088992       0.07177597       0.00214606      -0.12444691       1.70706136       2.07823537       0.56063325
I       20.12713665       3.10785757       5.67434551       0.31878763      -0.15543475       0.20660581       2.26915409       2.29136130       0.77032850
I       17.88883539       7.11495329       5.63437313       0.03437483       0.05385629       0.03452542       0.56117750       2.51025711      -1.17428039
I       21.71328919       6.27114433       3.63053146       0.16721576      -0.05017378       0.02817943      -0.72658536      -0.73448899       0.08015916
I       16.21255102       4.00267538       8.25966646      -0.04465685       0.11542513      -0.14046840       1.51104069       3.26975165      -1.27381356
I       21.62376846      10.01861486       6.04967480       0.18596716      -0.08727390      -0.33196215      -1.97778787       1.72208917       1.07281479
I       16.22984330      14.66548520       5.59845797       0.03095551      -0.17818940      -0.22689203      -0.26417017      -1.66259221       0.72681402
I       21.82099426      10.03205429       1.41678362       0.03151885      -0.00131776       0.14240836      -0.27623824       0.14051853       1.21021889
I       16.58087000      14.72808590       1.45618395       0.13604962      -0.26960246       0.35771368      -0.58773733      -0.89515159      -0.32971123
I       20.38539894      13.35821830       7.87768825       0.06453047      -0.10227526       0.00872240      -0.79295504       0.61790318      -0.62802061
I       17.86029626      11.37195291       3.84347286       0.00031140       0.07056834      -0.04156199       1.78146227       3.39885562       0.76182167
I       28.27708433       2.81192662       1.82466464      -0.11405269       0.07064869      -0.04029177       0.51784533       1.47440490      -0.61894970
I       25.51362546       7.36468019       1.52240093       0.08255358       0.09013180      -0.08802484       0.69034115      -1.28517661       1.38859652