320
Lattice="25.121854697261806 -0.05977452525107978 -0.12957468506993428 0.07192418218408468 24.82535238426277 -0.21579304325525844 0.12447059888337542 -0.778188195725328 24.81728374174729" Properties=species:S:1:pos:R:3:forces:R:3:momenta:R:3 pbc="T T T"
Cs       9.71999790      12.79975081       4.47860945      -0.13031017      -0.05482960      -0.00908442      -1.74937807      -1.71073337       0.19822857
Cs       3.21228531       7.46504962       3.83844413      -0.01974742       0.07887071      -0.10137666      -0.56626398      -1.54330130       1.01687384
Cs       3.25216090       7.63930342      10.11924550      -0.02783346      -0.09969114      -0.09817147      -0.75281092      -1.51168043      -1.38530166
Cs       9.74418187      12.96938709      11.51951012      -0.16247372      -0.03666876      -0.07712746       0.17003747      -0.99311032      -0.72758691
Cs       9.50796477       6.18302943      10.84537266      -0.03302294       0.05717439       0.19630189      -0.55301075      -0.58040077       1.16126062
Cs       3.14538159      13.50703688       9.72895040       0.18340344       0.10674741       0.15118460       1.32599640      -1.29177853      -1.22128839
Cs       3.16145084      14.34568925       4.07187804       0.14178173      -0.02983289      -0.03844816      -2.69922859       0.58525307      -0.50888507
Cs       9.49090308       6.82915294       5.04471521       0.10216145      -0.00984412       0.00206206       0.06536094      -1.75052976      -1.75781456
Pb      25.15954279       4.09599816       7.40098181      -0.18020854       0.08369940      -0.02115198      -0.49138813       1.58093661      -1.21600117
Pb       6.33249917      10.24266441       7.55992818       0.16350962       0.02381027      -0.23408639       0.16161058      -0.61427786       0.27181988
Pb      25.09530767      10.39274513       7.47195248       0.23103795      -0.22520585      -0.33024611      -1.37209934      -2.66598267       0.45440745
Pb       6.43219034       4.07847916       7.48609365      -0.06045504      -0.18973544       0.07085086       1.14954168       0.84085943       1.12531600
Pb       0.03371201       4.32347388       1.33790640      -0.20567838      -0.15813229      -0.07454398       0.94283010      -0.33476062      -4.88518938
Pb       6.37370477      10.14094427       1.30267429      -0.06450607       0.19403287       0.11908120       0.45217833       0.58929139      -0.57476288
Pb       0.18220960      10.31442050       1.20814318       0.00071971       0.10039399       0.35802537      -0.67264993      -1.26886937      -2.17280473
Pb       6.31791877       4.07987493       1.27308715      -0.02596414      -0.05297421       0.10081984       0.01029894       1.78773982       0.15761356
I       24.57642316       7.32641086       8.13065986       0.07664708      -0.34282177      -0.12491357      -0.17981275      -1.20942493       0.80646291
I        6.00758853      13.36644045       6.69369813      -0.07363401      -0.28033729      -0.03240076      -1.45531380      -0.53679115       1.07885533
I       13.19750633      13.43096480       6.57887915      -0.05746189       0.16358808       0.11469121      -0.77915955      -0.56082509       0.42965223
I        7.05080937       7.02623223       8.35303467      -0.12843396       0.37190617      -0.14809496      -0.32586227      -1.82662202       0.63792230
I        9.61028047      11.25316917       8.04251938      -0.11183400      -0.12644823      -0.00680087       0.91434753       1.60566624      -0.71511829
I        3.16839709      16.63598248       7.80844779       0.06850892       0.26667292       0.01781888       0.56510190       1.21824930       0.08819246
I        3.35797706       9.67882419       6.85462214      -0.28686812       0.13021467       0.14977128       0.66267571       0.58601941      -0.55067073
I        9.40796733       3.39995664       6.92801905       0.17470992       0.10899605      -0.00316738       0.43675753      -0.96514441      -0.67182838
I       12.18467395      13.47808516       1.60794272       0.07865579       0.03971944       0.05040976       0.08867866      -0.23425288       0.58693802
I        5.59391636       7.17473984       0.41441654       0.12721799      -0.02016267       0.09338350       0.44993865      -0.02796757       0.99558136
I        0.45979528       6.89459490      12.73503845       0.12615278       0.12639593       0.09839826       0.88894480      -1.59033192      -1.21568126
I        6.96657106      12.97421902      14.36367524      -0.11669737       0.07845110      -0.03651814       0.01002932       0.55017906      -0.08184392
I        3.37488467      10.57978663      14.67467723      -0.28204053      -0.13233887      -0.15000902      -0.93545982      -1.61882393       0.15650697
I        9.40531089       4.29197429      14.32569220       0.09589110      -0.03234693      -0.09883457      -0.13040216       0.91993715      -1.20013350
I        9.47789133       9.85933658       0.67330574       0.27319565      -0.04890920      -0.01097003      -0.65047170       0.84665584       0.85030917
I        3.06514712      16.33918311       0.65313626       0.14737735      -0.14293860      -0.06787326       1.04666352      -2.91102786      -0.29466234
I       24.42468238      15.93285792      10.29971748       0.18205986      -0.16589217       0.07367856      -0.95561604      -1.09503298      -0.96000473
I        5.84768088      10.78312529      10.69343220      -0.04072765       0.01943200      -0.30897424       1.24865013       0.09180629       1.25824984
I       13.06137231       4.88829744       4.30705066      -0.06122216      -0.01067911       0.09304874       0.72484935       0.32038771      -0.23324225
I        6.94923203       9.26337923       4.29435463      -0.06338991       0.24611211       0.40676471      -1.64477519      -0.81990430      -1.34996263
I       24.66008465       9.70918907       4.27685594       0.02271360      -0.05310767      -0.03614259      -2.22527846      -0.16161484       1.03158980
I        5.80598602      17.22725942       4.35227294       0.07906942      -0.04231090       0.00913470       0.87268851       2.53859233      -2.53260112
I       13.56651610      10.72773258      10.54688593      -0.14440372       0.04780229       0.06139788       0.41723597      -0.64680603       0.11301310
I        6.82857234       3.05657780      10.65975276       0.00209982       0.01118792      -0.15788729       2.36219596       0.52869836       0.91163426
Cs       9.78223320      12.41065671      16.88725132      -0.13031017      -0.05482960      -0.00908442      -1.74937807      -1.71073337       0.19822857
Cs       3.27452061       7.07595552      16.24708600      -0.01974742       0.07887071      -0.10137666      -0.56626398      -1.54330130       1.01687384
Cs       3.31439620       7.25020932      22.52788737      -0.02783346      -0.09969114      -0.09817147      -0.75281092      -1.51168043      -1.38530166
Cs       9.80641717      12.58029299      23.92815199      -0.16247372      -0.03666876      -0.07712746       0.17003747      -0.99311032      -0.72758691
Cs       9.57020007       5.79393533      23.25401453      -0.03302294       0.05717439       0.19630189      -0.55301075      -0.58040077       1.16126062
Cs       3.20761689      13.11794278      22.13759227       0.18340344       0.10674741       0.15118460       1.32599640      -1.29177853      -1.22128839
Cs       3.22368614      13.95659515      16.48051991       0.14178173      -0.02983289      -0.03844816      -2.69922859       0.58525307      -0.50888507
Cs       9.55313838       6.44005884      17.45335708       0.10216145      -0.00984412       0.00206206       0.06536094      -1.75052976      -1.75781456
Pb      25.22177809       3.70690407      19.80962369      -0.18020854       0.08369940      -0.02115198      -0.49138813       1.58093661      -1.21600117
Pb       6.39473447       9.85357031      19.96857005       0.16350962       0.02381027      -0.23408639       0.16161058      -0.61427786       0.27181988
Pb      25.15754297      10.00365104      19.88059436       0.23103795      -0.22520585      -0.33024611      -1.37209934      -2.66598267       0.45440745
Pb       6.49442564       3.68938506      19.89473552      -0.06045504      -0.18973544       0.07085086       1.14954168       0.84085943       1.12531600
Pb       0.09594731       3.93437978      13.74654827      -0.20567838      -0.15813229      -0.07454398       0.94283010      -0.33476062      -4.88518938
Pb       6.43594007       9.75185017      13.71131616      -0.06450607       0.19403287       0.11908120       0.45217833       0.58929139      -0.57476288
Pb       0.24444490       9.92532640      13.61678505       0.00071971       0.10039399       0.35802537      -0.67264993      -1.26886937      -2.17280473
Pb       6.38015407       3.69078083      13.68172902      -0.02596414      -0.05297421       0.10081984       0.01029894       1.78773982       0.15761356
I       24.63865846       6.93731677      20.53930174       0.07664708      -0.34282177      -0.12491357      -0.17981275      -1.20942493       0.80646291
I        6.06982383      12.97734635      19.10234000      -0.07363401      -0.28033729      -0.03240076      -1.45531380      -0.53679115       1.07885533
I       13.25974163      13.04187070      18.98752102      -0.05746189       0.16358808       0.11469121      -0.77915955      -0.56082509       0.42965223
I        7.11304467       6.63713813      20.76167654      -0.12843396       0.37190617      -0.14809496      -0.32586227      -1.82662202       0.63792230
I        9.67251577      10.86407507      20.45116125      -0.11183400      -0.12644823      -0.00680087       0.91434753       1.60566624      -0.71511829
I        3.23063239      16.24688838      20.21708966       0.06850892       0.26667292       0.01781888       0.56510190       1.21824930       0.08819246
I        3.42021236       9.28973009      19.26326401      -0.28686812       0.13021467       0.14977128       0.66267571       0.58601941      -0.55067073
I        9.47020263       3.01086254      19.33666092       0.17470992       0.10899605      -0.00316738       0.43675753      -0.96514441      -0.67182838
I       12.24690925      13.08899106      14.01658459       0.07865579       0.03971944       0.05040976       0.08867866      -0.23425288       0.58693802
I        5.65615166       6.78564574      12.82305841       0.12721799      -0.02016267       0.09338350       0.44993865      -0.02796757       0.99558136
I        0.39755998       7.28368900       0.32639658       0.12615278       0.12639593       0.09839826       0.88894480      -1.59033192      -1.21568126
I        6.90433576      13.36331312       1.95503337      -0.11669737       0.07845110      -0.03651814       0.01002932       0.55017906      -0.08184392
I        3.31264937      10.96888073       2.26603536      -0.28204053      -0.13233887      -0.15000902      -0.93545982      -1.61882393       0.15650697
I        9.34307559       4.68106839       1.91705033       0.09589110      -0.03234693      -0.09883457      -0.13040216       0.91993715      -1.20013350
I        9.54012663       9.47024248      13.08194761       0.27319565      -0.04890920      -0.01097003      -0.65047170       0.84665584       0.85030917
I        3.12738242      15.95008901      13.06177813       0.14737735      -0.14293860      -0.06787326       1.04666352      -2.91102786      -0.29466234
I       24.48691768      15.54376383      22.70835936       0.18205986      -0.16589217       0.07367856      -0.95561604      -1.09503298      -0.96000473
I        5.90991618      10.39403119      23.10207407      -0.04072765       0.01943200      -0.30897424       1.24865013       0.09180629       1.25824984
I       13.12360761       4.49920334      16.71569253      -0.06122216      -0.01067911       0.09304874       0.72484935       0.32038771      -0.23324225
I        7.01146733       8.87428513      16.70299650      -0.06338991       0.24611211       0.40676471      -1.64477519      -0.81990430      -1.34996263
I       24.72231995       9.32009498      16.68549782       0.02271360      -0.05310767      -0.03614259      -2.22527846      -0.16161484       1.03158980
I        5.86822132      16.83816532      16.76091481       0.07906942      -0.04231090       0.00913470       0.87268851       2.53859233      -2.53260112
I       13.62875140      10.33863848      22.95552780      -0.14440372       0.04780229       0.06139788       0.41723597      -0.64680603       0.11301310
I        6.89080764       2.66748370      23.06839463       0.00209982       0.01118792      -0.15788729       2.36219596       0.52869836       0.91163426
Cs       9.68403581       0.38707462       4.58650597      -0.13031017      -0.05482960      -0.00908442      -1.74937807      -1.71073337       0.19822857
Cs       3.24824740      19.87772581       3.73054761      -0.01974742       0.07887071      -0.10137666      -0.56626398      -1.54330130       1.01687384
Cs       3.28812299      20.05197961      10.01134898      -0.02783346      -0.09969114      -0.09817147      -0.75281092      -1.51168043      -1.38530166
Cs       9.70821978       0.55671090      11.62740664      -0.16247372      -0.03666876      -0.07712746       0.17003747      -0.99311032      -0.72758691
Cs       9.54392686      18.59570562      10.73747614      -0.03302294       0.05717439       0.19630189      -0.55301075      -0.58040077       1.16126062
Cs       3.10941950       1.09436069       9.83684692       0.18340344       0.10674741       0.15118460       1.32599640      -1.29177853      -1.22128839
Cs       3.12548875       1.93301306       4.17977456       0.14178173      -0.02983289      -0.03844816      -2.69922859       0.58525307      -0.50888507
Cs       9.52686517      19.24182913       4.93681869       0.10216145      -0.00984412       0.00206206       0.06536094      -1.75052976      -1.75781456
Pb      25.19550488      16.50867436       7.29308529      -0.18020854       0.08369940      -0.02115198      -0.49138813       1.58093661      -1.21600117
Pb       6.36846126      22.65534060       7.45203166       0.16350962       0.02381027      -0.23408639       0.16161058      -0.61427786       0.27181988
Pb      25.13126976      22.80542133       7.36405596       0.23103795      -0.22520585      -0.33024611      -1.37209934      -2.66598267       0.45440745
Pb       6.46815243      16.49115535       7.37819713      -0.06045504      -0.18973544       0.07085086       1.14954168       0.84085943       1.12531600
Pb       0.06967410      16.73615007       1.23000988      -0.20567838      -0.15813229      -0.07454398       0.94283010      -0.33476062      -4.88518938
Pb       6.40966686      22.55362046       1.19477777      -0.06450607       0.19403287       0.11908120       0.45217833       0.58929139      -0.57476288
Pb       0.21817169      22.72709669       1.10024666       0.00071971       0.10039399       0.35802537      -0.67264993      -1.26886937      -2.17280473
Pb       6.35388086      16.49255112       1.16519063      -0.02596414      -0.05297421       0.10081984       0.01029894       1.78773982       0.15761356
I       24.61238525      19.73908706       8.02276334       0.07664708      -0.34282177      -0.12491357      -0.17981275      -1.20942493       0.80646291
I        5.97162644       0.95376426       6.80159465      -0.07363401      -0.28033729      -0.03240076      -1.45531380      -0.53679115       1.07885533
I       13.16154424       1.01828861       6.68677567      -0.05746189       0.16358808       0.11469121      -0.77915955      -0.56082509       0.42965223
I        7.08677146      19.43890842       8.24513815      -0.12843396       0.37190617      -0.14809496      -0.32586227      -1.82662202       0.63792230
I        9.64624256      23.66584536       7.93462286      -0.11183400      -0.12644823      -0.00680087       0.91434753       1.60566624      -0.71511829
I        3.13243500       4.22330629       7.91634431       0.06850892       0.26667292       0.01781888       0.56510190       1.21824930       0.08819246
I        3.39393915      22.09150038       6.74672562      -0.28686812       0.13021467       0.14977128       0.66267571       0.58601941      -0.55067073
I        9.44392942      15.81263283       6.82012253       0.17470992       0.10899605      -0.00316738       0.43675753      -0.96514441      -0.67182838
I       12.14871186       1.06540897       1.71583924       0.07865579       0.03971944       0.05040976       0.08867866      -0.23425288       0.58693802
I        5.62987845      19.58741603       0.30652002       0.12721799      -0.02016267       0.09338350       0.44993865      -0.02796757       0.99558136
I        0.49575737      19.30727109      12.62714193       0.12615278       0.12639593       0.09839826       0.88894480      -1.59033192      -1.21568126
I        6.93060897       0.56154283      14.47157176      -0.11669737       0.07845110      -0.03651814       0.01002932       0.55017906      -0.08184392
I        3.41084676      22.99246282      14.56678071      -0.28204053      -0.13233887      -0.15000902      -0.93545982      -1.61882393       0.15650697
I        9.44127298      16.70465048      14.21779568       0.09589110      -0.03234693      -0.09883457      -0.13040216       0.91993715      -1.20013350
I        9.51385342      22.27201277       0.56540922       0.27319565      -0.04890920      -0.01097003      -0.65047170       0.84665584       0.85030917
I        3.02918503       3.92650692       0.76103278       0.14737735      -0.14293860      -0.06787326       1.04666352      -2.91102786      -0.29466234
I       24.38872029       3.52018173      10.40761401       0.18205986      -0.16589217       0.07367856      -0.95561604      -1.09503298      -0.96000473
I        5.88364297      23.19580148      10.58553568      -0.04072765       0.01943200      -0.30897424       1.24865013       0.09180629       1.25824984
I       13.09733440      17.30097363       4.19915414      -0.06122216      -0.01067911       0.09304874       0.72484935       0.32038771      -0.23324225
I        6.98519412      21.67605542       4.18645811      -0.06338991       0.24611211       0.40676471      -1.64477519      -0.81990430      -1.34996263
I       24.69604674      22.12186527       4.16895942       0.02271360      -0.05310767      -0.03614259      -2.22527846      -0.16161484       1.03158980
I        5.77002393       4.81458323       4.46016946       0.07906942      -0.04231090       0.00913470       0.87268851       2.53859233      -2.53260112
I       13.60247819      23.14040877      10.43898941      -0.14440372       0.04780229       0.06139788       0.41723597      -0.64680603       0.11301310
I        6.86453443      15.46925399      10.55185624       0.00209982       0.01118792      -0.15788729       2.36219596       0.52869836       0.91163426
Cs       9.74627111      -0.00201948      16.99514784      -0.13031017      -0.05482960      -0.00908442      -1.74937807      -1.71073337       0.19822857
Cs       3.31048270      19.48863171      16.13918948      -0.01974742       0.07887071      -0.10137666      -0.56626398      -1.54330130       1.01687384
Cs       3.35035829      19.66288551      22.41999085      -0.02783346      -0.09969114      -0.09817147      -0.75281092      -1.51168043      -1.38530166
Cs       9.77045508       0.16761680      24.03604851      -0.16247372      -0.03666876      -0.07712746       0.17003747      -0.99311032      -0.72758691
Cs       9.60616216      18.20661152      23.14611801      -0.03302294       0.05717439       0.19630189      -0.55301075      -0.58040077       1.16126062
Cs       3.17165480       0.70526659      22.24548879       0.18340344       0.10674741       0.15118460       1.32599640      -1.29177853      -1.22128839
Cs       3.18772405       1.54391896      16.58841643       0.14178173      -0.02983289      -0.03844816      -2.69922859       0.58525307      -0.50888507
Cs       9.58910047      18.85273503      17.34546056       0.10216145      -0.00984412       0.00206206       0.06536094      -1.75052976      -1.75781456
Pb      25.25774018      16.11958026      19.70172716      -0.18020854       0.08369940      -0.02115198      -0.49138813       1.58093661      -1.21600117
Pb       6.43069656      22.26624650      19.86067353       0.16350962       0.02381027      -0.23408639       0.16161058      -0.61427786       0.27181988
Pb      25.19350506      22.41632723      19.77269783       0.23103795      -0.22520585      -0.33024611      -1.37209934      -2.66598267       0.45440745
Pb       6.53038773      16.10206125      19.78683900      -0.06045504      -0.18973544       0.07085086       1.14954168       0.84085943       1.12531600
Pb       0.13190940      16.34705597      13.63865175      -0.20567838      -0.15813229      -0.07454398       0.94283010      -0.33476062      -4.88518938
Pb       6.47190216      22.16452636      13.60341964      -0.06450607       0.19403287       0.11908120       0.45217833       0.58929139      -0.57476288
Pb       0.28040699      22.33800259      13.50888853       0.00071971       0.10039399       0.35802537      -0.67264993      -1.26886937      -2.17280473
Pb       6.41611616      16.10345702      13.57383250      -0.02596414      -0.05297421       0.10081984       0.01029894       1.78773982       0.15761356
I       24.67462055      19.34999296      20.43140521       0.07664708      -0.34282177      -0.12491357      -0.17981275      -1.20942493       0.80646291
I        6.03386174       0.56467016      19.21023652      -0.07363401      -0.28033729      -0.03240076      -1.45531380      -0.53679115       1.07885533
I       13.22377954       0.62919451      19.09541754      -0.05746189       0.16358808       0.11469121      -0.77915955      -0.56082509       0.42965223
I        7.14900676      19.04981432      20.65378002      -0.12843396       0.37190617      -0.14809496      -0.32586227      -1.82662202       0.63792230
I        9.70847786      23.27675126      20.34326473      -0.11183400      -0.12644823      -0.00680087       0.91434753       1.60566624      -0.71511829
I        3.19467030       3.83421219      20.32498618       0.06850892       0.26667292       0.01781888       0.56510190       1.21824930       0.08819246
I        3.45617445      21.70240628      19.15536749      -0.28686812       0.13021467       0.14977128       0.66267571       0.58601941      -0.55067073
I        9.50616472      15.42353873      19.22876440       0.17470992       0.10899605      -0.00316738       0.43675753      -0.96514441      -0.67182838
I       12.21094716       0.67631487      14.12448111       0.07865579       0.03971944       0.05040976       0.08867866      -0.23425288       0.58693802
I        5.69211375      19.19832193      12.71516189       0.12721799      -0.02016267       0.09338350       0.44993865      -0.02796757       0.99558136
I        0.43352207      19.69636519       0.21850006       0.12615278       0.12639593       0.09839826       0.88894480      -1.59033192      -1.21568126
I        6.86837367       0.95063693       2.06292989      -0.11669737       0.07845110      -0.03651814       0.01002932       0.55017906      -0.08184392
I        3.34861146      23.38155692       2.15813884      -0.28204053      -0.13233887      -0.15000902      -0.93545982      -1.61882393       0.15650697
I        9.37903768      17.09374458       1.80915381       0.09589110      -0.03234693      -0.09883457      -0.13040216       0.91993715      -1.20013350
I        9.57608872      21.88291867      12.97405109       0.27319565      -0.04890920      -0.01097003      -0.65047170       0.84665584       0.85030917
I        3.09142033       3.53741282      13.16967465       0.14737735      -0.14293860      -0.06787326       1.04666352      -2.91102786      -0.29466234
I       24.45095559       3.13108763      22.81625588       0.18205986      -0.16589217       0.07367856      -0.95561604      -1.09503298      -0.96000473
I        5.94587827      22.80670738      22.99417755      -0.04072765       0.01943200      -0.30897424       1.24865013       0.09180629       1.25824984
I       13.15956970      16.91187953      16.60779601      -0.06122216      -0.01067911       0.09304874       0.72484935       0.32038771      -0.23324225
I        7.04742942      21.28696132      16.59509998      -0.06338991       0.24611211       0.40676471      -1.64477519      -0.81990430      -1.34996263
I       24.75828204      21.73277117      16.57760129       0.02271360      -0.05310767      -0.03614259      -2.22527846      -0.16161484       1.03158980
I        5.83225923       4.42548913      16.86881133       0.07906942      -0.04231090       0.00913470       0.87268851       2.53859233      -2.53260112
I       13.66471349      22.75131467      22.84763128      -0.14440372       0.04780229       0.06139788       0.41723597      -0.64680603       0.11301310
I        6.92676973      15.08015989      22.96049811       0.00209982       0.01118792      -0.15788729       2.36219596       0.52869836       0.91163426
Cs      22.28092525      12.76986355       4.41382211      -0.13031017      -0.05482960      -0.00908442      -1.74937807      -1.71073337       0.19822857
Cs      15.77321266       7.43516236       3.77365679      -0.01974742       0.07887071      -0.10137666      -0.56626398      -1.54330130       1.01687384
Cs      15.81308825       7.60941616      10.05445816      -0.02783346      -0.09969114      -0.09817147      -0.75281092      -1.51168043      -1.38530166
Cs      22.30510922      12.93949983      11.45472278      -0.16247372      -0.03666876      -0.07712746       0.17003747      -0.99311032      -0.72758691
Cs      22.06889212       6.15314217      10.78058532      -0.03302294       0.05717439       0.19630189      -0.55301075      -0.58040077       1.16126062
Cs      15.70630894      13.47714962       9.66416306       0.18340344       0.10674741       0.15118460       1.32599640      -1.29177853      -1.22128839
Cs      15.72237819      14.31580199       4.00709070       0.14178173      -0.02983289      -0.03844816      -2.69922859       0.58525307      -0.50888507
Cs      22.05183043       6.79926568       4.97992787       0.10216145      -0.00984412       0.00206206       0.06536094      -1.75052976      -1.75781456
Pb      12.59861544       4.12588543       7.46576916      -0.18020854       0.08369940      -0.02115198      -0.49138813       1.58093661      -1.21600117
Pb      18.89342652      10.21277715       7.49514084       0.16350962       0.02381027      -0.23408639       0.16161058      -0.61427786       0.27181988
Pb      12.53438032      10.42263240       7.53673983       0.23103795      -0.22520585      -0.33024611      -1.37209934      -2.66598267       0.45440745
Pb      18.99311769       4.04859190       7.42130631      -0.06045504      -0.18973544       0.07085086       1.14954168       0.84085943       1.12531600
Pb      12.59463936       4.29358662       1.27311906      -0.20567838      -0.15813229      -0.07454398       0.94283010      -0.33476062      -4.88518938
Pb      18.93463212      10.11105701       1.23788695      -0.06450607       0.19403287       0.11908120       0.45217833       0.58929139      -0.57476288
Pb      12.74313695      10.28453324       1.14335584       0.00071971       0.10039399       0.35802537      -0.67264993      -1.26886937      -2.17280473
Pb      18.87884612       4.04998767       1.20829981      -0.02596414      -0.05297421       0.10081984       0.01029894       1.78773982       0.15761356
I       12.01549581       7.35629813       8.19544721       0.07664708      -0.34282177      -0.12491357      -0.17981275      -1.20942493       0.80646291
I       18.56851588      13.33655319       6.62891079      -0.07363401      -0.28033729      -0.03240076      -1.45531380      -0.53679115       1.07885533
I        0.63657898      13.46085206       6.64366649      -0.05746189       0.16358808       0.11469121      -0.77915955      -0.56082509       0.42965223
I       19.61173672       6.99634497       8.28824733      -0.12843396       0.37190617      -0.14809496      -0.32586227      -1.82662202       0.63792230
I       22.17120782      11.22328191       7.97773204      -0.11183400      -0.12644823      -0.00680087       0.91434753       1.60566624      -0.71511829
I       15.72932444      16.60609522       7.74366045       0.06850892       0.26667292       0.01781888       0.56510190       1.21824930       0.08819246
I       15.91890441       9.64893693       6.78983480      -0.28686812       0.13021467       0.14977128       0.66267571       0.58601941      -0.55067073
I       21.96889468       3.37006938       6.86323171       0.17470992       0.10899605      -0.00316738       0.43675753      -0.96514441      -0.67182838
I       24.74560130      13.44819790       1.54315538       0.07865579       0.03971944       0.05040976       0.08867866      -0.23425288       0.58693802
I       18.15484371       7.14485258       0.34962920       0.12721799      -0.02016267       0.09338350       0.44993865      -0.02796757       0.99558136
I       13.02072263       6.86470764      12.67025111       0.12615278       0.12639593       0.09839826       0.88894480      -1.59033192      -1.21568126
I       19.52749841      12.94433176      14.29888790      -0.11669737       0.07845110      -0.03651814       0.01002932       0.55017906      -0.08184392
I       15.93581202      10.54989937      14.60988989      -0.28204053      -0.13233887      -0.15000902      -0.93545982      -1.61882393       0.15650697
I       21.96623824       4.26208703      14.26090486       0.09589110      -0.03234693      -0.09883457      -0.13040216       0.91993715      -1.20013350