320
Lattice="35.78794042575779 -0.37839846603646177 -0.24217113649280456 0.2257959835333163 21.00955516298944 -0.015306901360210465 0.11054213265190213 0.01896394099226511 19.312856914076352" Properties=species:S:1:pos:R:3:forces:R:3:momenta:R:3 pbc="T T T"
Cs       7.27499269       1.51349533       4.60500755      -0.02376022      -0.04336437       0.04681861      -1.53024180      -0.96406588       0.28533254
Cs      13.53985408      10.10824445       2.44204295       0.00386197       0.00762329      -0.26144600      -0.39743618      -1.82952261      -0.14019656
Cs       4.60099246       6.72709459       4.75080299      -0.00501497      -0.05494294      -0.05656229      -0.40032277      -1.67506295      -1.10710352
Cs      16.41535388       4.71916650       2.50703942      -0.11218235       0.00645475      -0.19970562       0.63049655      -0.97445695      -1.79985402
Cs       7.37874909       1.25266413       9.40607145      -0.00005494       0.12954473       0.07542152       0.19131049      -0.08142944       0.26333022
Cs      13.38279260       9.81414645       7.02005140       0.15195837       0.19071657       0.30574579       1.25819649      -1.05870279      -0.30374913
Cs       4.58768529       6.65435448       9.46669674       0.00994302       0.10378873       0.04528879      -4.05172958       0.96945289       0.11683999
Cs      16.24457772       4.64211977       7.11038650       0.06542010       0.17925604       0.12029154      -0.34715734      -0.88012181      -1.50849286
Pb       2.49545726       2.19359717       2.34286740      -0.04754931      -0.10622764       0.11037655      -2.18494901      -0.91144176      -0.54232714
Pb      18.22290009       9.18627315       4.78957971      -0.01665108       0.35694449      -0.10150437      -1.04512683       1.66225060       1.11176185
Pb       9.24955869       7.56201238       2.48633574       0.09644466      -0.53826702      -0.55412938      -1.14395358      -4.41086768       0.07536542
Pb      11.73046588       3.97971074       4.63894294      -0.38984931      -0.15495099       0.05010054      -0.28925952       1.18034262       0.83982331
Pb       2.55497435       2.40697398       7.18377500      -0.36225883      -0.33111339      -0.02117908      -1.06951630      -1.87947364      -4.97873604
Pb      18.18976848       9.22634300       9.56042704       0.10024137       0.35433862      -0.05285297       0.27265077       2.71211299      -0.83113388
Pb       9.49925128       7.28794159       7.05876868      -0.13599043      -0.05182916       0.39540702      -0.25287704      -1.49556990      -3.43229725
Pb      11.51537598       3.96546652       9.52141364       0.08746369      -0.21337741       0.07892643       1.24137805       1.02334779       0.70399621
I        1.49759845       4.35007551       4.79301653       0.11424319      -0.25528125      -0.14571840       0.60160486      -1.09903406       1.11627806
I        1.55576083       7.69259354       2.42976961      -0.01548944      -0.11600554      -0.13715682      -1.04846760       0.44891207       0.00714596
I       10.53053028       9.23933137       4.65762453      -0.06207012       0.06229142       0.09551398      -1.92234661      -2.47374406       1.49985499
I       10.48402488       2.00563861       2.38268692      -0.04292346       0.20915058      -0.15505061       0.19570847      -3.02990295      -0.11964936
I       17.27609590       0.85554124       2.33808363       0.01548481      -0.19439646       0.05784987       0.36659018       0.13477997       0.32560323
I        3.48918487      10.70088514       4.85176825      -0.02079958       0.07804007       0.08671773       0.69964644      -0.10740718       0.51153552
I       12.54713452       5.95453739       2.21252335      -0.35927043       0.07412147       0.09587481       0.70794781      -0.60663967      -1.25522927
I        8.44025231       5.26003489       4.78172381       0.07398088       0.15715748      -0.11977745       0.17508952      -0.22746667      -0.66490396
I        5.22206574       3.57032107       2.10418046       0.17157450       0.19966494       0.15446215       2.11448700       1.73273553       1.26240979
I       15.44352658       7.80368222       4.55070219       0.11454023      -0.15191331       0.20043218       0.20287604      -0.44254572       1.13192924
I        6.50375190       8.97685954       2.20348759       0.15486593      -0.08160203       0.12681755       0.54510941      -1.99583962      -1.50006637
I       14.27754071       2.32816362       4.88061461       0.04922477       0.10289192      -0.09825820       1.14878801       0.67714326       0.08881306
I        1.51573092       4.12308417       9.75920165      -0.12489463       0.16499747      -0.15935967       0.50507416      -0.66027261       0.65337272
I        1.33692380       7.55756345       7.28942957       0.10935075      -0.14472543      -0.01086170       0.52998378       1.01886309      -1.01819526
I       10.47739323       9.24973933       9.59129022       0.00645133      -0.18882820       0.00545403      -1.91852643       0.73358987       0.21156748
I       10.27055760       2.09200201       7.12066815       0.25845173       0.18153483      -0.16147311       0.56410643      -1.54799054      -0.89751145
I       17.16005062       0.86311197       7.06282808       0.27602079      -0.22796295       0.13691999      -0.35743908      -2.05285700      -0.00363598
I        3.55255953      10.72966317       9.44916131      -0.12392636       0.07113840       0.13224194       0.21008162      -0.45314898       2.62690803
I       12.60651606       5.91220611       7.09510247      -0.06132971       0.08434139       0.09442903       0.52779388       1.43872534      -0.17467901
I        8.46106304       5.27328521       9.52111463       0.14887701       0.39327966       0.11651767      -1.10599526       0.27443193      -1.69945680
I        5.22278811       3.75471057       7.19686580       0.25510864       0.02184345      -0.09996376       0.07715165       0.74790513       0.00524124
I       15.51486213       7.79882533       9.71024302      -0.01032604      -0.14347346      -0.12832445       1.01539970       2.49216279      -1.57844440
I        6.88507354       8.95113204       7.01066644      -0.14275831      -0.12345470      -0.00655501       0.61004884      -1.01415661      -0.57655867
I       14.32110323       2.50365097       9.61561536      -0.20640821      -0.00740409      -0.06172883       1.50145529       0.74524230       0.37015588
Cs       7.33026376       1.52297730      14.26143601      -0.02376022      -0.04336437       0.04681861      -1.53024180      -0.96406588       0.28533254
Cs      13.59512515      10.11772642      12.09847141       0.00386197       0.00762329      -0.26144600      -0.39743618      -1.82952261      -0.14019656
Cs       4.65626353       6.73657656      14.40723145      -0.00501497      -0.05494294      -0.05656229      -0.40032277      -1.67506295      -1.10710352
Cs      16.47062495       4.72864847      12.16346788      -0.11218235       0.00645475      -0.19970562       0.63049655      -0.97445695      -1.79985402
Cs       7.43402016       1.26214610      19.06249991      -0.00005494       0.12954473       0.07542152       0.19131049      -0.08142944       0.26333022
Cs      13.43806367       9.82362842      16.67647986       0.15195837       0.19071657       0.30574579       1.25819649      -1.05870279      -0.30374913
Cs       4.64295636       6.66383645      19.12312520       0.00994302       0.10378873       0.04528879      -4.05172958       0.96945289       0.11683999
Cs      16.29984879       4.65160174      16.76681496       0.06542010       0.17925604       0.12029154      -0.34715734      -0.88012181      -1.50849286
Pb       2.55072833       2.20307914      11.99929586      -0.04754931      -0.10622764       0.11037655      -2.18494901      -0.91144176      -0.54232714
Pb      18.27817116       9.19575512      14.44600817      -0.01665108       0.35694449      -0.10150437      -1.04512683       1.66225060       1.11176185
Pb       9.30482976       7.57149435      12.14276420       0.09644466      -0.53826702      -0.55412938      -1.14395358      -4.41086768       0.07536542
Pb      11.78573695       3.98919271      14.29537140      -0.38984931      -0.15495099       0.05010054      -0.28925952       1.18034262       0.83982331
Pb       2.61024542       2.41645595      16.84020346      -0.36225883      -0.33111339      -0.02117908      -1.06951630      -1.87947364      -4.97873604
Pb      18.13449741       9.21686103      -0.09600142       0.10024137       0.35433862      -0.05285297       0.27265077       2.71211299      -0.83113388
Pb       9.55452235       7.29742356      16.71519714      -0.13599043      -0.05182916       0.39540702      -0.25287704      -1.49556990      -3.43229725
Pb      11.57064705       3.97494849      19.17784210       0.08746369      -0.21337741       0.07892643       1.24137805       1.02334779       0.70399621
I        1.55286952       4.35955748      14.44944499       0.11424319      -0.25528125      -0.14571840       0.60160486      -1.09903406       1.11627806
I        1.61103190       7.70207551      12.08619807      -0.01548944      -0.11600554      -0.13715682      -1.04846760       0.44891207       0.00714596
I       10.58580135       9.24881334      14.31405299      -0.06207012       0.06229142       0.09551398      -1.92234661      -2.47374406       1.49985499
I       10.53929595       2.01512058      12.03911538      -0.04292346       0.20915058      -0.15505061       0.19570847      -3.02990295      -0.11964936
I       17.33136697       0.86502321      11.99451209       0.01548481      -0.19439646       0.05784987       0.36659018       0.13477997       0.32560323
I        3.54445594      10.71036711      14.50819671      -0.02079958       0.07804007       0.08671773       0.69964644      -0.10740718       0.51153552
I       12.60240559       5.96401936      11.86895181      -0.35927043       0.07412147       0.09587481       0.70794781      -0.60663967      -1.25522927
I        8.49552338       5.26951686      14.43815227       0.07398088       0.15715748      -0.11977745       0.17508952      -0.22746667      -0.66490396
I        5.27733681       3.57980304      11.76060892       0.17157450       0.19966494       0.15446215       2.11448700       1.73273553       1.26240979
I       15.49879765       7.81316419      14.20713065       0.11454023      -0.15191331       0.20043218       0.20287604      -0.44254572       1.13192924
I        6.55902297       8.98634151      11.85991605       0.15486593      -0.08160203       0.12681755       0.54510941      -1.99583962      -1.50006637
I       14.33281178       2.33764559      14.53704307       0.04922477       0.10289192      -0.09825820       1.14878801       0.67714326       0.08881306
I        1.46045985       4.11360220       0.10277319      -0.12489463       0.16499747      -0.15935967       0.50507416      -0.66027261       0.65337272
I        1.39219487       7.56704542      16.94585803       0.10935075      -0.14472543      -0.01086170       0.52998378       1.01886309      -1.01819526
I       10.42212216       9.24025736      -0.06513824       0.00645133      -0.18882820       0.00545403      -1.91852643       0.73358987       0.21156748
I       10.32582867       2.10148398      16.77709661       0.25845173       0.18153483      -0.16147311       0.56410643      -1.54799054      -0.89751145
I       17.21532169       0.87259394      16.71925654       0.27602079      -0.22796295       0.13691999      -0.35743908      -2.05285700      -0.00363598
I        3.60783060      10.73914514      19.10558977      -0.12392636       0.07113840       0.13224194       0.21008162      -0.45314898       2.62690803
I       12.66178713       5.92168808      16.75153093      -0.06132971       0.08434139       0.09442903       0.52779388       1.43872534      -0.17467901
I        8.51633411       5.28276718      19.17754309       0.14887701       0.39327966       0.11651767      -1.10599526       0.27443193      -1.69945680
I        5.27805918       3.76419254      16.85329426       0.25510864       0.02184345      -0.09996376       0.07715165       0.74790513       0.00524124
I       15.45959106       7.78934336       0.05381456      -0.01032604      -0.14347346      -0.12832445       1.01539970       2.49216279      -1.57844440
I        6.94034461       8.96061401      16.66709490      -0.14275831      -0.12345470      -0.00655501       0.61004884      -1.01415661      -0.57655867
I       14.26583216       2.49416900      -0.04081310      -0.20640821      -0.00740409      -0.06172883       1.50145529       0.74524230       0.37015588
Cs       7.38789068      12.01827291       4.59735410      -0.02376022      -0.04336437       0.04681861      -1.53024180      -0.96406588       0.28533254
Cs      13.65275207      20.61302203       2.43438950       0.00386197       0.00762329      -0.26144600      -0.39743618      -1.82952261      -0.14019656
Cs       4.71389045      17.23187217       4.74314954      -0.00501497      -0.05494294      -0.05656229      -0.40032277      -1.67506295      -1.10710352
Cs      16.52825187      15.22394408       2.49938597      -0.11218235       0.00645475      -0.19970562       0.63049655      -0.97445695      -1.79985402
Cs       7.49164708      11.75744171       9.39841800      -0.00005494       0.12954473       0.07542152       0.19131049      -0.08142944       0.26333022
Cs      13.49569059      20.31892403       7.01239795       0.15195837       0.19071657       0.30574579       1.25819649      -1.05870279      -0.30374913
Cs       4.70058328      17.15913206       9.45904329       0.00994302       0.10378873       0.04528879      -4.05172958       0.96945289       0.11683999
Cs      16.35747571      15.14689735       7.10273305       0.06542010       0.17925604       0.12029154      -0.34715734      -0.88012181      -1.50849286
Pb       2.60835525      12.69837475       2.33521395      -0.04754931      -0.10622764       0.11037655      -2.18494901      -0.91144176      -0.54232714
Pb      18.33579808      19.69105073       4.78192626      -0.01665108       0.35694449      -0.10150437      -1.04512683       1.66225060       1.11176185
Pb       9.36245668      18.06678996       2.47868229       0.09644466      -0.53826702      -0.55412938      -1.14395358      -4.41086768       0.07536542
Pb      11.84336387      14.48448832       4.63128949      -0.38984931      -0.15495099       0.05010054      -0.28925952       1.18034262       0.83982331
Pb       2.66787234      12.91175156       7.17612155      -0.36225883      -0.33111339      -0.02117908      -1.06951630      -1.87947364      -4.97873604
Pb      18.30266647      19.73112058       9.55277359       0.10024137       0.35433862      -0.05285297       0.27265077       2.71211299      -0.83113388
Pb       9.61214927      17.79271917       7.05111523      -0.13599043      -0.05182916       0.39540702      -0.25287704      -1.49556990      -3.43229725
Pb      11.62827397      14.47024410       9.51376019       0.08746369      -0.21337741       0.07892643       1.24137805       1.02334779       0.70399621
I        1.61049644      14.85485309       4.78536308       0.11424319      -0.25528125      -0.14571840       0.60160486      -1.09903406       1.11627806
I        1.66865882      18.19737112       2.42211616      -0.01548944      -0.11600554      -0.13715682      -1.04846760       0.44891207       0.00714596
I       10.64342827      19.74410895       4.64997108      -0.06207012       0.06229142       0.09551398      -1.92234661      -2.47374406       1.49985499
I       10.59692287      12.51041619       2.37503347      -0.04292346       0.20915058      -0.15505061       0.19570847      -3.02990295      -0.11964936
I       17.38899389      11.36031882       2.33043018       0.01548481      -0.19439646       0.05784987       0.36659018       0.13477997       0.32560323
I        3.37628688       0.19610756       4.85942170      -0.02079958       0.07804007       0.08671773       0.69964644      -0.10740718       0.51153552
I       12.66003251      16.45931497       2.20486990      -0.35927043       0.07412147       0.09587481       0.70794781      -0.60663967      -1.25522927
I        8.55315030      15.76481247       4.77407036       0.07398088       0.15715748      -0.11977745       0.17508952      -0.22746667      -0.66490396
I        5.33496373      14.07509865       2.09652701       0.17157450       0.19966494       0.15446215       2.11448700       1.73273553       1.26240979
I       15.55642457      18.30845980       4.54304874       0.11454023      -0.15191331       0.20043218       0.20287604      -0.44254572       1.13192924
I        6.61664989      19.48163712       2.19583414       0.15486593      -0.08160203       0.12681755       0.54510941      -1.99583962      -1.50006637
I       14.39043870      12.83294120       4.87296116       0.04922477       0.10289192      -0.09825820       1.14878801       0.67714326       0.08881306
I        1.62862891      14.62786175       9.75154820      -0.12489463       0.16499747      -0.15935967       0.50507416      -0.66027261       0.65337272
I        1.44982179      18.06234103       7.28177612       0.10935075      -0.14472543      -0.01086170       0.52998378       1.01886309      -1.01819526
I       10.59029122      19.75451691       9.58363677       0.00645133      -0.18882820       0.00545403      -1.91852643       0.73358987       0.21156748
I       10.38345559      12.59677959       7.11301470       0.25845173       0.18153483      -0.16147311       0.56410643      -1.54799054      -0.89751145
I       17.27294861      11.36788955       7.05517463       0.27602079      -0.22796295       0.13691999      -0.35743908      -2.05285700      -0.00363598
I        3.43966154       0.22488559       9.45681476      -0.12392636       0.07113840       0.13224194       0.21008162      -0.45314898       2.62690803
I       12.71941405      16.41698369       7.08744902      -0.06132971       0.08434139       0.09442903       0.52779388       1.43872534      -0.17467901
I        8.57396103      15.77806279       9.51346118       0.14887701       0.39327966       0.11651767      -1.10599526       0.27443193      -1.69945680
I        5.33568610      14.25948815       7.18921235       0.25510864       0.02184345      -0.09996376       0.07715165       0.74790513       0.00524124
I       15.62776012      18.30360291       9.70258957      -0.01032604      -0.14347346      -0.12832445       1.01539970       2.49216279      -1.57844440
I        6.99797153      19.45590962       7.00301299      -0.14275831      -0.12345470      -0.00655501       0.61004884      -1.01415661      -0.57655867
I       14.43400122      13.00842855       9.60796191      -0.20640821      -0.00740409      -0.06172883       1.50145529       0.74524230       0.37015588
Cs       7.44316175      12.02775488      14.25378256      -0.02376022      -0.04336437       0.04681861      -1.53024180      -0.96406588       0.28533254
Cs      13.70802314      20.62250400      12.09081796       0.00386197       0.00762329      -0.26144600      -0.39743618      -1.82952261      -0.14019656
Cs       4.76916152      17.24135414      14.39957800      -0.00501497      -0.05494294      -0.05656229      -0.40032277      -1.67506295      -1.10710352
Cs      16.58352294      15.23342605      12.15581443      -0.11218235       0.00645475      -0.19970562       0.63049655      -0.97445695      -1.79985402
Cs       7.54691815      11.76692368      19.05484646      -0.00005494       0.12954473       0.07542152       0.19131049      -0.08142944       0.26333022
Cs      13.55096166      20.32840600      16.66882641       0.15195837       0.19071657       0.30574579       1.25819649      -1.05870279      -0.30374913
Cs       4.75585435      17.16861403      19.11547175       0.00994302       0.10378873       0.04528879      -4.05172958       0.96945289       0.11683999
Cs      16.41274678      15.15637932      16.75916151       0.06542010       0.17925604       0.12029154      -0.34715734      -0.88012181      -1.50849286
Pb       2.66362632      12.70785672      11.99164241      -0.04754931      -0.10622764       0.11037655      -2.18494901      -0.91144176      -0.54232714
Pb      18.39106915      19.70053270      14.43835472      -0.01665108       0.35694449      -0.10150437      -1.04512683       1.66225060       1.11176185
Pb       9.41772775      18.07627193      12.13511075       0.09644466      -0.53826702      -0.55412938      -1.14395358      -4.41086768       0.07536542
Pb      11.89863494      14.49397029      14.28771795      -0.38984931      -0.15495099       0.05010054      -0.28925952       1.18034262       0.83982331
Pb       2.72314341      12.92123353      16.83255001      -0.36225883      -0.33111339      -0.02117908      -1.06951630      -1.87947364      -4.97873604
Pb      18.24739541      19.72163861      -0.10365487       0.10024137       0.35433862      -0.05285297       0.27265077       2.71211299      -0.83113388
Pb       9.66742034      17.80220114      16.70754369      -0.13599043      -0.05182916       0.39540702      -0.25287704      -1.49556990      -3.43229725
Pb      11.68354504      14.47972607      19.17018865       0.08746369      -0.21337741       0.07892643       1.24137805       1.02334779       0.70399621
I        1.66576751      14.86433506      14.44179154       0.11424319      -0.25528125      -0.14571840       0.60160486      -1.09903406       1.11627806
I        1.72392989      18.20685309      12.07854462      -0.01548944      -0.11600554      -0.13715682      -1.04846760       0.44891207       0.00714596
I       10.69869934      19.75359092      14.30639954      -0.06207012       0.06229142       0.09551398      -1.92234661      -2.47374406       1.49985499
I       10.65219394      12.51989816      12.03146193      -0.04292346       0.20915058      -0.15505061       0.19570847      -3.02990295      -0.11964936
I       17.44426496      11.36980079      11.98685864       0.01548481      -0.19439646       0.05784987       0.36659018       0.13477997       0.32560323
I        3.43155794       0.20558953      14.51585016      -0.02079958       0.07804007       0.08671773       0.69964644      -0.10740718       0.51153552
I       12.71530358      16.46879694      11.86129836      -0.35927043       0.07412147       0.09587481       0.70794781      -0.60663967      -1.25522927
I        8.60842137      15.77429444      14.43049882       0.07398088       0.15715748      -0.11977745       0.17508952      -0.22746667      -0.66490396
I        5.39023480      14.08458062      11.75295547       0.17157450       0.19966494       0.15446215       2.11448700       1.73273553       1.26240979
I       15.61169564      18.31794177      14.19947720       0.11454023      -0.15191331       0.20043218       0.20287604      -0.44254572       1.13192924
I        6.67192096      19.49111909      11.85226260       0.15486593      -0.08160203       0.12681755       0.54510941      -1.99583962      -1.50006637
I       14.44570977      12.84242317      14.52938962       0.04922477       0.10289192      -0.09825820       1.14878801       0.67714326       0.08881306
I        1.57335785      14.61837978       0.09511974      -0.12489463       0.16499747      -0.15935967       0.50507416      -0.66027261       0.65337272
I        1.50509286      18.07182300      16.93820458       0.10935075      -0.14472543      -0.01086170       0.52998378       1.01886309      -1.01819526
I       10.53502016      19.74503494      -0.07279169       0.00645133      -0.18882820       0.00545403      -1.91852643       0.73358987       0.21156748
I       10.43872666      12.60626156      16.76944316       0.25845173       0.18153483      -0.16147311       0.56410643      -1.54799054      -0.89751145
I       17.32821968      11.37737152      16.71160309       0.27602079      -0.22796295       0.13691999      -0.35743908      -2.05285700      -0.00363598
I        3.49493260       0.23436756      19.11324322      -0.12392636       0.07113840       0.13224194       0.21008162      -0.45314898       2.62690803
I       12.77468512      16.42646566      16.74387748      -0.06132971       0.08434139       0.09442903       0.52779388       1.43872534      -0.17467901
I        8.62923210      15.78754476      19.16988964       0.14887701       0.39327966       0.11651767      -1.10599526       0.27443193      -1.69945680
I        5.39095717      14.26897012      16.84564081       0.25510864       0.02184345      -0.09996376       0.07715165       0.74790513       0.00524124
I       15.57248906      18.29412094       0.04616111      -0.01032604      -0.14347346      -0.12832445       1.01539970       2.49216279      -1.57844440
I        7.05324260      19.46539159      16.65944145      -0.14275831      -0.12345470      -0.00655501       0.61004884      -1.01415661      -0.57655867
I       14.37873016      12.99894658      -0.04846655      -0.20640821      -0.00740409      -0.06172883       1.50145529       0.74524230       0.37015588
Cs      25.16896290       1.32429610       4.48392198      -0.02376022      -0.04336437       0.04681861      -1.53024180      -0.96406588       0.28533254
Cs      31.43382429       9.91904522       2.32095738       0.00386197       0.00762329      -0.26144600      -0.39743618      -1.82952261      -0.14019656
Cs      22.49496267       6.53789536       4.62971742      -0.00501497      -0.05494294      -0.05656229      -0.40032277      -1.67506295      -1.10710352
Cs      34.30932409       4.52996727       2.38595385      -0.11218235       0.00645475      -0.19970562       0.63049655      -0.97445695      -1.79985402
Cs      25.27271930       1.06346490       9.28498588      -0.00005494       0.12954473       0.07542152       0.19131049      -0.08142944       0.26333022
Cs      31.27676281       9.62494722       6.89896583       0.15195837       0.19071657       0.30574579       1.25819649      -1.05870279      -0.30374913
Cs      22.48165550       6.46515525       9.34561117       0.00994302       0.10378873       0.04528879      -4.05172958       0.96945289       0.11683999
Cs      34.13854793       4.45292054       6.98930093       0.06542010       0.17925604       0.12029154      -0.34715734      -0.88012181      -1.50849286
Pb      20.38942747       2.00439794       2.22178183      -0.04754931      -0.10622764       0.11037655      -2.18494901      -0.91144176      -0.54232714
Pb       0.32892988       9.37547238       4.91066528      -0.01665108       0.35694449      -0.10150437      -1.04512683       1.66225060       1.11176185
Pb      27.14352890       7.37281315       2.36525017       0.09644466      -0.53826702      -0.55412938      -1.14395358      -4.41086768       0.07536542
Pb      29.62443609       3.79051151       4.51785737      -0.38984931      -0.15495099       0.05010054      -0.28925952       1.18034262       0.83982331
Pb      20.44894456       2.21777475       7.06268943      -0.36225883      -0.33111339      -0.02117908      -1.06951630      -1.87947364      -4.97873604
Pb       0.29579827       9.41554223       9.68151261       0.10024137       0.35433862      -0.05285297       0.27265077       2.71211299      -0.83113388
Pb      27.39322149       7.09874236       6.93768311      -0.13599043      -0.05182916       0.39540702      -0.25287704      -1.49556990      -3.43229725
Pb      29.40934619       3.77626729       9.40032807       0.08746369      -0.21337741       0.07892643       1.24137805       1.02334779       0.70399621
I       19.39156866       4.16087628       4.67193096       0.11424319      -0.25528125      -0.14571840       0.60160486      -1.09903406       1.11627806
I       19.44973104       7.50339431       2.30868404      -0.01548944      -0.11600554      -0.13715682      -1.04846760       0.44891207       0.00714596
I       28.42450049       9.05013214       4.53653896      -0.06207012       0.06229142       0.09551398      -1.92234661      -2.47374406       1.49985499
I       28.37799509       1.81643938       2.26160135      -0.04292346       0.20915058      -0.15505061       0.19570847      -3.02990295      -0.11964936
I       35.17006611       0.66634201       2.21699806       0.01548481      -0.19439646       0.05784987       0.36659018       0.13477997       0.32560323
I       21.38315508      10.51168591       4.73068268      -0.02079958       0.07804007       0.08671773       0.69964644      -0.10740718       0.51153552
I       30.44110473       5.76533816       2.09143778      -0.35927043       0.07412147       0.09587481       0.70794781      -0.60663967      -1.25522927
I       26.33422252       5.07083566       4.66063824       0.07398088       0.15715748      -0.11977745       0.17508952      -0.22746667      -0.66490396
I       23.11603595       3.38112184       1.98309489       0.17157450       0.19966494       0.15446215       2.11448700       1.73273553       1.26240979
I       33.33749679       7.61448299       4.42961662       0.11454023      -0.15191331       0.20043218       0.20287604      -0.44254572       1.13192924
I       24.39772211       8.78766031       2.08240202       0.15486593      -0.08160203       0.12681755       0.54510941      -1.99583962      -1.50006637
I       32.17151092       2.13896439       4.75952904       0.04922477       0.10289192      -0.09825820       1.14878801       0.67714326       0.08881306
I       19.40970113       3.93388494       9.63811608      -0.12489463       0.16499747      -0.15935967       0.50507416      -0.66027261       0.65337272
I       19.23089401       7.36836422       7.16834400       0.10935075      -0.14472543      -0.01086170       0.52998378       1.01886309      -1.01819526