320
Lattice="31.392636507215773 -0.04481615214523286 0.09492011689125937 0.1392903615087138 28.887165468702893 0.25788863917263216 -0.2799812260619887 -0.14238296324623026 16.953981605175922" Properties=species:S:1:pos:R:3:forces:R:3:momenta:R:3 pbc="T T T"
Cs       1.73496626       3.35794418       3.71512227       0.02400095      -0.02984274       0.04501823      -0.35108456      -0.32446579       1.66542443
Cs       5.07294859       5.09674831       8.06076946       0.06222581       0.11842140       0.03194128      -0.27177449       0.99202065      -0.99836625
Cs       1.30809713      10.21965758      16.73599108      -0.10046909       0.04254986      -0.03543807      -0.41204556       0.96634806      -0.75673627
Cs       5.17092359      12.61211711       4.28198553       0.20616262       0.12186276      -0.11541408       1.70589226       1.84256995      -2.23269259
Cs       9.24650658       3.22282750       4.16562260      -0.07177130       0.00760030      -0.06364429       0.31484048      -1.90256156       1.61241926
Cs      13.17958833       5.42696017       8.20231198       0.04855360       0.09762894       0.07785626      -0.59707429      -1.00043128       1.92901183
Cs       9.59863722      10.19180299      16.89683572      -0.09150300      -0.13573704      -0.06186935       0.42157990      -2.30235990       2.10544060
Cs      12.81726376      13.39499905       4.08991986       0.06020319      -0.17419158      -0.00890125       0.20878734      -0.23721790       0.41328478
Pb       3.06040040      15.10519056       8.21841584       0.29084512      -0.08718035       0.09920829      -0.87442787      -2.16770031       0.96464452
Pb       7.14173662      14.91572590       8.26339240      -0.64840762      -0.01439167       0.28497110       2.70223560      -0.46720430       0.12329719
Pb       3.91047723       8.06153572       3.79666898       0.07468586       0.02219426       0.26712186       1.87230364      -0.69931648      -0.37546588
Pb       0.04887489       8.08220678       4.02036033      -0.34919432       0.02330201       0.19606049      -0.58073046      -3.61702698      -1.65637586
Pb      10.87227878      15.26663531       8.38205186       0.11125958      -0.02124410       0.18452270      -2.40917729      -1.85668725      -0.67464819
Pb      14.89653985      15.33007125       8.29464779      -0.25492771       0.01240145       0.23300849      -2.16040697       0.48706043       0.53506080
Pb      11.69282022       7.80536896       4.16115660       0.07642308       0.09481333      -0.07423670       2.14206653       1.83814952      -2.38948635
Pb       7.74303454       7.96870727       3.90432666       0.36515691      -0.07664297       0.20241644      -0.05898639      -0.85515352      -2.51065181
I        5.03813820       2.04466653       1.80999724       0.02157036      -0.02101335      -0.13283352      -0.60809891       0.89319142       1.64794710
I        1.69002435       7.01574823       1.63305573       0.28168812      -0.23194419      -0.11316158       3.07979425      -0.74700493      -1.19238187
I        5.11834363       1.46823715       5.67025877      -0.15124146       0.11703785       0.09503736       1.97861102      -2.18364059       1.00211236
I        2.27291792       6.70557441       6.20249978      -0.13566682       0.08420205      -0.22961631       0.16607053       1.66829308      -1.68854475
I        5.79978323       5.45454406       4.07505509       0.02154782      -0.19462119      -0.03105206       3.31780377       1.15610461      -0.81537151
I        1.12805787       3.36723119       7.92153710      -0.08718825       0.11396159       0.08594303       0.67564669       0.02147379      -1.43795337
I        5.94630636       9.43183436       6.01894655      -0.04571127      -0.09756530      -0.11430369      -1.29983073       1.90073528      -1.64303584
I        1.00346162      14.11727561       6.00550346      -0.27568396      -0.11444148      -0.10019923       0.34365473       1.08166278      -1.65767370
I        6.01585222       8.92510370       1.45288521       0.03093880       0.15261360       0.00667642       0.40463575       1.38653777      -0.79486562
I        1.09669032      13.97544885       1.99691569      -0.04674420       0.11481220      -0.09934827       0.90825079      -0.58031161      -0.76733693
I        4.75940990      12.39847410       8.36686454       0.06552525       0.24358136       0.05402990       0.41820436       0.37136882      -2.91699437
I        2.02173284      10.61871576       4.09560584       0.02774902       0.11730098      -0.01950384      -0.69136216      -0.71236775       0.86475132
I       12.66641524       2.35603173       2.01890754       0.22838397      -0.15265051      -0.35838949      -0.80749242      -1.34193226      -1.99526020
I        9.92469050       6.36911500       1.92010820      -0.03768578       0.09963878       0.02520455      -0.42372224      -1.89924317       1.02774753
I       12.65423916       2.21466630       6.05175944      -0.03522955      -0.07832717       0.04623825       0.27100506      -0.23150978      -0.41110357
I        9.71168109       6.63146358       6.41681683      -0.02766996       0.11879422      -0.25461050       0.17961949      -1.72594273       0.88415898
I       13.99538924       5.41039413       4.10256904      -0.01547193       0.02376680       0.01270167      -0.79381285       0.51766428      -1.23702823
I        8.58992812       3.21315822       8.34685163      -0.01384448       0.01752048      -0.06825542       0.66984750       0.84576535      -0.12305345
I       13.61937517       9.23314631       6.20856152       0.11244887       0.11193255       0.36569642      -0.82465686       0.50830832      -0.07953734
I        8.95195966      13.87095126       6.10972089       0.12701824      -0.14944055      -0.21837833       1.46068899       0.18585892       1.37548027
I       13.74549447       9.34518327       2.02298069      -0.04373280      -0.04337278      -0.04755974       0.75997879      -2.34809897       0.12874636
I        9.03352808      13.79971764       2.10372329       0.10170501       0.00861345      -0.01229110      -0.57834078       0.53795765       0.20926276
I       12.83101098      12.77102589       8.46874691       0.05513605      -0.02182426      -0.07000876      -1.61800579      -0.17718390       1.19931493
I        9.88955704      10.49178724       4.17052398       0.03891522      -0.22011898      -0.08463716      -1.58806212      -0.65848327      -1.49518683
Cs       1.59497565       3.28675270      12.19211307       0.02400095      -0.02984274       0.04501823      -0.35108456      -0.32446579       1.66542443
Cs       4.93295798       5.02555683      16.53776026       0.06222581       0.11842140       0.03194128      -0.27177449       0.99202065      -0.99836625
Cs       1.44808775      10.29084906       8.25900027      -0.10046909       0.04254986      -0.03543807      -0.41204556       0.96634806      -0.75673627
Cs       5.03093298      12.54092563      12.75897633       0.20616262       0.12186276      -0.11541408       1.70589226       1.84256995      -2.23269259
Cs       9.10651597       3.15163602      12.64261340      -0.07177130       0.00760030      -0.06364429       0.31484048      -1.90256156       1.61241926
Cs      13.03959772       5.35576869      16.67930278       0.04855360       0.09762894       0.07785626      -0.59707429      -1.00043128       1.92901183
Cs       9.73862784      10.26299447       8.41984491      -0.09150300      -0.13573704      -0.06186935       0.42157990      -2.30235990       2.10544060
Cs      12.67727315      13.32380757      12.56691066       0.06020319      -0.17419158      -0.00890125       0.20878734      -0.23721790       0.41328478
Pb       2.92040979      15.03399908      16.69540664       0.29084512      -0.08718035       0.09920829      -0.87442787      -2.16770031       0.96464452
Pb       7.00174601      14.84453442      16.74038320      -0.64840762      -0.01439167       0.28497110       2.70223560      -0.46720430       0.12329719
Pb       3.77048662       7.99034424      12.27365978       0.07468586       0.02219426       0.26712186       1.87230364      -0.69931648      -0.37546588
Pb      -0.09111572       8.01101530      12.49735113      -0.34919432       0.02330201       0.19606049      -0.58073046      -3.61702698      -1.65637586
Pb      10.73228817      15.19544383      16.85904266       0.11125958      -0.02124410       0.18452270      -2.40917729      -1.85668725      -0.67464819
Pb      14.75654924      15.25887977      16.77163859      -0.25492771       0.01240145       0.23300849      -2.16040697       0.48706043       0.53506080
Pb      11.55282961       7.73417748      12.63814740       0.07642308       0.09481333      -0.07423670       2.14206653       1.83814952      -2.38948635
Pb       7.60304393       7.89751579      12.38131746       0.36515691      -0.07664297       0.20241644      -0.05898639      -0.85515352      -2.51065181
I        4.89814759       1.97347505      10.28698804       0.02157036      -0.02101335      -0.13283352      -0.60809891       0.89319142       1.64794710
I        1.55003374       6.94455675      10.11004653       0.28168812      -0.23194419      -0.11316158       3.07979425      -0.74700493      -1.19238187
I        4.97835302       1.39704567      14.14724957      -0.15124146       0.11703785       0.09503736       1.97861102      -2.18364059       1.00211236
I        2.13292731       6.63438293      14.67949058      -0.13566682       0.08420205      -0.22961631       0.16607053       1.66829308      -1.68854475
I        5.65979262       5.38335258      12.55204589       0.02154782      -0.19462119      -0.03105206       3.31780377       1.15610461      -0.81537151
I        0.98806726       3.29603971      16.39852790      -0.08718825       0.11396159       0.08594303       0.67564669       0.02147379      -1.43795337
I        5.80631575       9.36064288      14.49593735      -0.04571127      -0.09756530      -0.11430369      -1.29983073       1.90073528      -1.64303584
I        0.86347101      14.04608413      14.48249426      -0.27568396      -0.11444148      -0.10019923       0.34365473       1.08166278      -1.65767370
I        5.87586161       8.85391222       9.92987601       0.03093880       0.15261360       0.00667642       0.40463575       1.38653777      -0.79486562
I        0.95669971      13.90425737      10.47390649      -0.04674420       0.11481220      -0.09934827       0.90825079      -0.58031161      -0.76733693
I        4.61941929      12.32728262      16.84385534       0.06552525       0.24358136       0.05402990       0.41820436       0.37136882      -2.91699437
I        1.88174223      10.54752428      12.57259664       0.02774902       0.11730098      -0.01950384      -0.69136216      -0.71236775       0.86475132
I       12.52642463       2.28484025      10.49589834       0.22838397      -0.15265051      -0.35838949      -0.80749242      -1.34193226      -1.99526020
I        9.78469989       6.29792352      10.39709900      -0.03768578       0.09963878       0.02520455      -0.42372224      -1.89924317       1.02774753
I       12.51424855       2.14347482      14.52875024      -0.03522955      -0.07832717       0.04623825       0.27100506      -0.23150978      -0.41110357
I        9.57169048       6.56027210      14.89380763      -0.02766996       0.11879422      -0.25461050       0.17961949      -1.72594273       0.88415898
I       13.85539863       5.33920265      12.57955984      -0.01547193       0.02376680       0.01270167      -0.79381285       0.51766428      -1.23702823
I        8.44993751       3.14196674      16.82384243      -0.01384448       0.01752048      -0.06825542       0.66984750       0.84576535      -0.12305345
I       13.47938456       9.16195483      14.68555232       0.11244887       0.11193255       0.36569642      -0.82465686       0.50830832      -0.07953734
I        8.81196905      13.79975978      14.58671169       0.12701824      -0.14944055      -0.21837833       1.46068899       0.18585892       1.37548027
I       13.60550386       9.27399179      10.49997149      -0.04373280      -0.04337278      -0.04755974       0.75997879      -2.34809897       0.12874636
I        8.89353747      13.72852616      10.58071409       0.10170501       0.00861345      -0.01229110      -0.57834078       0.53795765       0.20926276
I       12.69102037      12.69983441      16.94573771       0.05513605      -0.02182426      -0.07000876      -1.61800579      -0.17718390       1.19931493
I        9.74956643      10.42059576      12.64751478       0.03891522      -0.22011898      -0.08463716      -1.58806212      -0.65848327      -1.49518683
Cs       1.80461144      17.80152691       3.84406659       0.02400095      -0.02984274       0.04501823      -0.35108456      -0.32446579       1.66542443
Cs       5.14259377      19.54033104       8.18971378       0.06222581       0.11842140       0.03194128      -0.27177449       0.99202065      -0.99836625
Cs       1.37774231      24.66324031      16.86493539      -0.10046909       0.04254986      -0.03543807      -0.41204556       0.96634806      -0.75673627
Cs       5.24056877      27.05569984       4.41092985       0.20616262       0.12186276      -0.11541408       1.70589226       1.84256995      -2.23269259
Cs       9.31615176      17.66641023       4.29456692      -0.07177130       0.00760030      -0.06364429       0.31484048      -1.90256156       1.61241926
Cs      13.24923351      19.87054290       8.33125630       0.04855360       0.09762894       0.07785626      -0.59707429      -1.00043128       1.92901183
Cs       9.66828240      24.63538572      17.02578003      -0.09150300      -0.13573704      -0.06186935       0.42157990      -2.30235990       2.10544060
Cs      12.88690894      27.83858178       4.21886418       0.06020319      -0.17419158      -0.00890125       0.20878734      -0.23721790       0.41328478
Pb       2.99075522       0.66160783       8.08947152       0.29084512      -0.08718035       0.09920829      -0.87442787      -2.16770031       0.96464452
Pb       7.07209144       0.47214317       8.13444808      -0.64840762      -0.01439167       0.28497110       2.70223560      -0.46720430       0.12329719
Pb       3.98012241      22.50511845       3.92561330       0.07468586       0.02219426       0.26712186       1.87230364      -0.69931648      -0.37546588
Pb       0.11852007      22.52578951       4.14930465      -0.34919432       0.02330201       0.19606049      -0.58073046      -3.61702698      -1.65637586
Pb      10.80263360       0.82305258       8.25310754       0.11125958      -0.02124410       0.18452270      -2.40917729      -1.85668725      -0.67464819
Pb      14.82689467       0.88648852       8.16570347      -0.25492771       0.01240145       0.23300849      -2.16040697       0.48706043       0.53506080
Pb      11.76246540      22.24895169       4.29010092       0.07642308       0.09481333      -0.07423670       2.14206653       1.83814952      -2.38948635
Pb       7.81267972      22.41229000       4.03327098       0.36515691      -0.07664297       0.20241644      -0.05898639      -0.85515352      -2.51065181
I        5.10778338      16.48824926       1.93894156       0.02157036      -0.02101335      -0.13283352      -0.60809891       0.89319142       1.64794710
I        1.75966953      21.45933096       1.76200005       0.28168812      -0.23194419      -0.11316158       3.07979425      -0.74700493      -1.19238187
I        5.18798881      15.91181988       5.79920309      -0.15124146       0.11703785       0.09503736       1.97861102      -2.18364059       1.00211236
I        2.34256310      21.14915714       6.33144410      -0.13566682       0.08420205      -0.22961631       0.16607053       1.66829308      -1.68854475
I        5.86942841      19.89812679       4.20399941       0.02154782      -0.19462119      -0.03105206       3.31780377       1.15610461      -0.81537151
I        1.19770305      17.81081392       8.05048142      -0.08718825       0.11396159       0.08594303       0.67564669       0.02147379      -1.43795337
I        6.01595154      23.87541709       6.14789087      -0.04571127      -0.09756530      -0.11430369      -1.29983073       1.90073528      -1.64303584
I        1.07310680      28.56085834       6.13444778      -0.27568396      -0.11444148      -0.10019923       0.34365473       1.08166278      -1.65767370
I        6.08549740      23.36868643       1.58182953       0.03093880       0.15261360       0.00667642       0.40463575       1.38653777      -0.79486562
I        1.16633550      28.41903158       2.12586001      -0.04674420       0.11481220      -0.09934827       0.90825079      -0.58031161      -0.76733693
I        4.82905508      26.84205683       8.49580886       0.06552525       0.24358136       0.05402990       0.41820436       0.37136882      -2.91699437
I        2.09137802      25.06229849       4.22455016       0.02774902       0.11730098      -0.01950384      -0.69136216      -0.71236775       0.86475132
I       12.73606042      16.79961446       2.14785186       0.22838397      -0.15265051      -0.35838949      -0.80749242      -1.34193226      -1.99526020
I        9.99433568      20.81269773       2.04905252      -0.03768578       0.09963878       0.02520455      -0.42372224      -1.89924317       1.02774753
I       12.72388434      16.65824903       6.18070376      -0.03522955      -0.07832717       0.04623825       0.27100506      -0.23150978      -0.41110357
I        9.78132627      21.07504631       6.54576115      -0.02766996       0.11879422      -0.25461050       0.17961949      -1.72594273       0.88415898
I       14.06503442      19.85397686       4.23151336      -0.01547193       0.02376680       0.01270167      -0.79381285       0.51766428      -1.23702823
I        8.65957330      17.65674095       8.47579595      -0.01384448       0.01752048      -0.06825542       0.66984750       0.84576535      -0.12305345
I       13.68902035      23.67672904       6.33750584       0.11244887       0.11193255       0.36569642      -0.82465686       0.50830832      -0.07953734
I        9.02160484      28.31453399       6.23866521       0.12701824      -0.14944055      -0.21837833       1.46068899       0.18585892       1.37548027
I       13.81513965      23.78876600       2.15192501      -0.04373280      -0.04337278      -0.04755974       0.75997879      -2.34809897       0.12874636
I        9.10317326      28.24330037       2.23266761       0.10170501       0.00861345      -0.01229110      -0.57834078       0.53795765       0.20926276
I       12.90065616      27.21460862       8.59769123       0.05513605      -0.02182426      -0.07000876      -1.61800579      -0.17718390       1.19931493
I        9.95920222      24.93536997       4.29946830       0.03891522      -0.22011898      -0.08463716      -1.58806212      -0.65848327      -1.49518683
Cs       1.66462083      17.73033543      12.32105739       0.02400095      -0.02984274       0.04501823      -0.35108456      -0.32446579       1.66542443
Cs       5.00260316      19.46913956      16.66670458       0.06222581       0.11842140       0.03194128      -0.27177449       0.99202065      -0.99836625
Cs       1.51773293      24.73443179       8.38794459      -0.10046909       0.04254986      -0.03543807      -0.41204556       0.96634806      -0.75673627
Cs       5.10057816      26.98450836      12.88792065       0.20616262       0.12186276      -0.11541408       1.70589226       1.84256995      -2.23269259
Cs       9.17616115      17.59521875      12.77155772      -0.07177130       0.00760030      -0.06364429       0.31484048      -1.90256156       1.61241926
Cs      13.10924290      19.79935142      16.80824710       0.04855360       0.09762894       0.07785626      -0.59707429      -1.00043128       1.92901183
Cs       9.80827302      24.70657720       8.54878923      -0.09150300      -0.13573704      -0.06186935       0.42157990      -2.30235990       2.10544060
Cs      12.74691833      27.76739030      12.69585498       0.06020319      -0.17419158      -0.00890125       0.20878734      -0.23721790       0.41328478
Pb       2.85076461       0.59041634      16.56646232       0.29084512      -0.08718035       0.09920829      -0.87442787      -2.16770031       0.96464452
Pb       6.93210083       0.40095168      16.61143888      -0.64840762      -0.01439167       0.28497110       2.70223560      -0.46720430       0.12329719
Pb       3.84013180      22.43392697      12.40260410       0.07468586       0.02219426       0.26712186       1.87230364      -0.69931648      -0.37546588
Pb      -0.02147054      22.45459803      12.62629545      -0.34919432       0.02330201       0.19606049      -0.58073046      -3.61702698      -1.65637586
Pb      10.66264299       0.75186109      16.73009834       0.11125958      -0.02124410       0.18452270      -2.40917729      -1.85668725      -0.67464819
Pb      14.68690406       0.81529703      16.64269427      -0.25492771       0.01240145       0.23300849      -2.16040697       0.48706043       0.53506080
Pb      11.62247479      22.17776021      12.76709172       0.07642308       0.09481333      -0.07423670       2.14206653       1.83814952      -2.38948635
Pb       7.67268911      22.34109852      12.51026178       0.36515691      -0.07664297       0.20241644      -0.05898639      -0.85515352      -2.51065181
I        4.96779277      16.41705778      10.41593236       0.02157036      -0.02101335      -0.13283352      -0.60809891       0.89319142       1.64794710
I        1.61967892      21.38813948      10.23899085       0.28168812      -0.23194419      -0.11316158       3.07979425      -0.74700493      -1.19238187
I        5.04799820      15.84062840      14.27619389      -0.15124146       0.11703785       0.09503736       1.97861102      -2.18364059       1.00211236
I        2.20257249      21.07796566      14.80843490      -0.13566682       0.08420205      -0.22961631       0.16607053       1.66829308      -1.68854475
I        5.72943780      19.82693531      12.68099021       0.02154782      -0.19462119      -0.03105206       3.31780377       1.15610461      -0.81537151
I        1.05771244      17.73962244      16.52747222      -0.08718825       0.11396159       0.08594303       0.67564669       0.02147379      -1.43795337
I        5.87596093      23.80422561      14.62488167      -0.04571127      -0.09756530      -0.11430369      -1.29983073       1.90073528      -1.64303584
I        0.93311619      28.48966686      14.61143858      -0.27568396      -0.11444148      -0.10019923       0.34365473       1.08166278      -1.65767370
I        5.94550679      23.29749495      10.05882033       0.03093880       0.15261360       0.00667642       0.40463575       1.38653777      -0.79486562
I        1.02634489      28.34784010      10.60285081      -0.04674420       0.11481220      -0.09934827       0.90825079      -0.58031161      -0.76733693
I        4.68906447      26.77086535      16.97279966       0.06552525       0.24358136       0.05402990       0.41820436       0.37136882      -2.91699437
I        1.95138741      24.99110701      12.70154096       0.02774902       0.11730098      -0.01950384      -0.69136216      -0.71236775       0.86475132
I       12.59606981      16.72842298      10.62484266       0.22838397      -0.15265051      -0.35838949      -0.80749242      -1.34193226      -1.99526020
I        9.85434507      20.74150625      10.52604332      -0.03768578       0.09963878       0.02520455      -0.42372224      -1.89924317       1.02774753
I       12.58389373      16.58705755      14.65769456      -0.03522955      -0.07832717       0.04623825       0.27100506      -0.23150978      -0.41110357
I        9.64133566      21.00385483      15.02275195      -0.02766996       0.11879422      -0.25461050       0.17961949      -1.72594273       0.88415898
I       13.92504381      19.78278538      12.70850416      -0.01547193       0.02376680       0.01270167      -0.79381285       0.51766428      -1.23702823
I        8.51958269      17.58554947      16.95278675      -0.01384448       0.01752048      -0.06825542       0.66984750       0.84576535      -0.12305345
I       13.54902974      23.60553756      14.81449664       0.11244887       0.11193255       0.36569642      -0.82465686       0.50830832      -0.07953734
I        8.88161423      28.24334251      14.71565601       0.12701824      -0.14944055      -0.21837833       1.46068899       0.18585892       1.37548027
I       13.67514904      23.71757452      10.62891581      -0.04373280      -0.04337278      -0.04755974       0.75997879      -2.34809897       0.12874636
I        8.96318265      28.17210889      10.70965841       0.10170501       0.00861345      -0.01229110      -0.57834078       0.53795765       0.20926276
I       12.76066555      27.14341714      17.07468203       0.05513605      -0.02182426      -0.07000876      -1.61800579      -0.17718390       1.19931493
I        9.81921161      24.86417849      12.77645910       0.03891522      -0.22011898      -0.08463716      -1.58806212      -0.65848327      -1.49518683
Cs      17.43128451       3.33553610       3.76258233       0.02400095      -0.02984274       0.04501823      -0.35108456      -0.32446579       1.66542443
Cs      20.76926684       5.07434023       8.10822952       0.06222581       0.11842140       0.03194128      -0.27177449       0.99202065      -0.99836625
Cs      17.00441539      10.19724950      16.78345113      -0.10046909       0.04254986      -0.03543807      -0.41204556       0.96634806      -0.75673627
Cs      20.86724184      12.58970903       4.32944559       0.20616262       0.12186276      -0.11541408       1.70589226       1.84256995      -2.23269259
Cs      24.94282483       3.20041942       4.21308266      -0.07177130       0.00760030      -0.06364429       0.31484048      -1.90256156       1.61241926
Cs      28.87590658       5.40455209       8.24977204       0.04855360       0.09762894       0.07785626      -0.59707429      -1.00043128       1.92901183
Cs      25.29495548      10.16939491      16.94429577      -0.09150300      -0.13573704      -0.06186935       0.42157990      -2.30235990       2.10544060
Cs      28.51358201      13.37259097       4.13737992       0.06020319      -0.17419158      -0.00890125       0.20878734      -0.23721790       0.41328478
Pb      18.75671865      15.08278248       8.26587590       0.29084512      -0.08718035       0.09920829      -0.87442787      -2.16770031       0.96464452
Pb      22.83805487      14.89331782       8.31085246      -0.64840762      -0.01439167       0.28497110       2.70223560      -0.46720430       0.12329719
Pb      19.60679548       8.03912764       3.84412904       0.07468586       0.02219426       0.26712186       1.87230364      -0.69931648      -0.37546588
Pb      15.74519314       8.05979870       4.06782039      -0.34919432       0.02330201       0.19606049      -0.58073046      -3.61702698      -1.65637586
Pb      26.56859703      15.24422723       8.42951192       0.11125958      -0.02124410       0.18452270      -2.40917729      -1.85668725      -0.67464819
Pb      30.59285810      15.30766317       8.34210785      -0.25492771       0.01240145       0.23300849      -2.16040697       0.48706043       0.53506080
Pb      27.38913847       7.78296088       4.20861666       0.07642308       0.09481333      -0.07423670       2.14206653       1.83814952      -2.38948635
Pb      23.43935279       7.94629919       3.95178672       0.36515691      -0.07664297       0.20241644      -0.05898639      -0.85515352      -2.51065181
I       20.73445645       2.02225845       1.85745730       0.02157036      -0.02101335      -0.13283352      -0.60809891       0.89319142       1.64794710
I       17.38634260       6.99334015       1.68051579       0.28168812      -0.23194419      -0.11316158       3.07979425      -0.74700493      -1.19238187
I       20.81466188       1.44582907       5.71771883      -0.15124146       0.11703785       0.09503736       1.97861102      -2.18364059       1.00211236
I       17.96923617       6.68316633       6.24995984      -0.13566682       0.08420205      -0.22961631       0.16607053       1.66829308      -1.68854475
I       21.49610148       5.43213598       4.12251515       0.02154782      -0.19462119      -0.03105206       3.31780377       1.15610461      -0.81537151
I       16.82437612       3.34482311       7.96899716      -0.08718825       0.11396159       0.08594303       0.67564669       0.02147379      -1.43795337
I       21.64262461       9.40942628       6.06640661      -0.04571127      -0.09756530      -0.11430369      -1.29983073       1.90073528      -1.64303584
I       16.69977987      14.09486753       6.05296352      -0.27568396      -0.11444148      -0.10019923       0.34365473       1.08166278      -1.65767370
I       21.71217047       8.90269562       1.50034527       0.03093880       0.15261360       0.00667642       0.40463575       1.38653777      -0.79486562
I       16.79300857      13.95304077       2.04437575      -0.04674420       0.11481220      -0.09934827       0.90825079      -0.58031161      -0.76733693
I       20.45572815      12.37606602       8.41432460       0.06552525       0.24358136       0.05402990       0.41820436       0.37136882      -2.91699437
I       17.71805109      10.59630768       4.14306590       0.02774902       0.11730098      -0.01950384      -0.69136216      -0.71236775       0.86475132
I       28.36273349       2.33362365       2.06636760       0.22838397      -0.15265051      -0.35838949      -0.80749242      -1.34193226      -1.99526020
I       25.62100875       6.34670692       1.96756826      -0.03768578       0.09963878       0.02520455      -0.42372224      -1.89924317       1.02774753