320
Lattice="25.121854697261806 -0.05977452525107978 -0.12957468506993428 0.07192418218408468 24.82535238426277 -0.21579304325525844 0.12447059888337542 -0.778188195725328 24.81728374174729" Properties=species:S:1:pos:R:3:forces:R:3:momenta:R:3 energy=-963.1607248157378 stress="0.0 0.0 0.0 0.0 0.0 0.0 0.0 0.0 0.0" pbc="T T T"
Cs      10.11212078      15.06715162       5.71867064      -0.26176112      -0.38374510      -0.16883091      -0.78991785      -0.98602522       0.89708741
Cs       3.21623383       9.77831287       5.89081872      -0.01542122       0.22150553      -0.08469428       0.86841528       0.16353062      -0.06128323
Cs       3.22161021      10.82469883      11.99998842      -0.03010311      -0.01138347       0.32076565       4.64136482       1.67063755       4.93206461
Cs       9.88282919      15.14391051      11.98373521      -0.31930796       0.08147662      -0.06447827      -1.62733123      -0.24350845      -2.42554984
Cs      10.02714795       8.56185513      11.71217581      -0.03040142      -0.11132741       0.30351745      -0.51556999       1.54708449      -1.17588923
Cs       3.20151524      15.61092288      10.30749896       0.12069741       0.02715517       0.36704303       4.47840643       2.54058998       2.77190798
Cs       3.77871722      16.96732813       5.72399859      -0.29959058      -0.20921587      -0.31851978       3.80447989      -0.95316612      -0.40085837
Cs       9.31172364       9.58159067       6.62789472       0.01493745      -0.08467842       0.14911793       1.49074049      -1.42253498      -2.19778653
Pb      -0.07001469       6.19639396       8.94461142       0.26873448       0.34085823      -0.27305656      -0.85170887      -1.66516995       5.51755058
Pb       6.31282959      12.37827564       8.82822272      -0.00718772       0.38312405       0.13451453       1.27234311       1.68582868       5.39875236
Pb      -0.35393653      12.81066474       8.81651524       0.07949919      -0.92942037       0.09227205      -2.81776920       3.53470753       4.75178772
Pb       5.84649909       6.23075031       9.31391422       0.07685115       0.79632690       0.10528020       2.33908519      -1.36991732      -1.14543788
Pb       0.53364139       6.45436996       2.43304408       0.04046242      -0.06432930       0.48336091       0.71730563      -3.02836077     -10.29832938
Pb       6.08736359      12.42415398       2.49175711      -0.50795894      -0.14924752       0.58583152       3.67445718      -1.53936299       4.83797574
Pb      -0.11864831      12.64267193       2.64664680       0.13124779      -0.37861289      -0.11563806       3.48547932       2.62111261       4.60111169
Pb       6.59140260       6.43060478       2.91957328      -0.06635962       0.36322448      -0.70046973      -0.49979450      -0.39247359       8.72105315
I       24.70840204       9.34719442       9.65660915      -0.05718282       0.38571128      -0.38365424       3.66984311       2.99501131       1.12785608
I        6.90413323      16.08938791       7.95855416      -0.32024825      -0.89674838      -0.06265737      -0.32165982       3.39234871      -1.91295410
I       13.27418988      15.58884284       8.49892650      -0.02444121       0.65747566      -0.05261659      -2.46305687      -1.07172165      -4.26370215
I        6.69145207       9.66067880      10.23004524      -0.23106992      -0.58061939      -0.45278628      -0.70697131       2.00218309       1.99680405
I        9.60901043      12.39755873       8.80718509      -0.01424752       0.10088073       0.04553430      -2.19421681      -0.29373674       0.56199893
I        3.27722340      19.21326885       9.07889542       0.04939861      -0.01280292      -0.28646578       1.32478884      -0.97911468       4.32666617
I        3.02192278      12.81302293       8.54375342       0.07764579       0.07954512       0.05479125      -2.46813062       2.52231862      -0.34911120
I        9.16545084       5.90047491       8.74995822       0.31380423       0.24512575       0.04211720       2.73096905      -0.17828703       0.44584014
I       12.65529494      15.50569888       3.03133604       0.06685243       0.12850993      -0.11661868      -1.83033451       3.45219898      -0.25670417
I        4.63994514       9.57677503       2.15436421       0.47186974      -0.40895563       0.02695932      -0.50883849      -2.04611457       0.81650010
I        0.10808570       9.16480837      14.49070288       0.28204538      -0.09737261      -0.01958900      -4.88680079      -1.73211849       0.06532920
I        6.73428159      15.61707382      16.51350019       0.37137788       0.20881188      -0.60297107      -1.23644651      -2.26323436       1.84888586
I        3.73990277      12.98261389      14.15506844      -0.77564613      -0.11157787       0.27571214      -4.01749314       0.78809227       1.33372990
I        9.33761903       6.11952952      15.14956038       0.60233425       0.16602749      -0.00338622      -2.41369275       1.60282102       0.50269338
I        9.49067968      12.11416157       3.15612701      -0.18107155       0.11759292      -0.02794627       4.13529731      -0.36411792      -2.68379153
I        3.30708367      19.30275676       1.98130248      -0.00808600      -0.30470201       0.08497097      -2.83895183       0.04262256       4.49711472
I       24.90113291      18.13892291      11.35203751       0.07416834      -0.08922553      -0.04621890       2.84832816       1.55455089       1.95894055
I        6.39466721      13.67237657      11.79812462       0.01545715       0.07501461       0.30792751       0.19326078       2.03742229      -1.52718438
I       12.92632474       7.23125463       5.36129250       0.26161930       0.06326063       0.23546176       2.72838252      -2.99550651      -6.51913167
I        6.30184256      11.84578080       5.96096991       0.14844821       0.02011312      -0.88917296      -1.80448286       1.95700996      -0.34874131
I       23.97167536      11.83284628       5.65367249       0.06763661       0.17320338      -0.31244114       3.46008033       4.76790005      -0.62234905
I        6.05839343      19.54021487       5.44397875       0.01318831       0.07453391      -0.33687665       0.68908059       2.80194817      -4.34057254
I       13.35175607      13.12893026      11.74170919      -0.05588708      -0.23573350       0.02374615      -2.03950298      -0.87402426      -2.78657392
I        6.98833173       5.49291572      12.07131107      -0.25738389       0.12004085       0.24737208      -3.48014226       0.27095322      -1.66651669
Cs       9.91697589      14.70374779      18.62765441      -0.13832253       0.01708396      -0.27128867      -2.48995937       3.48794849       3.59801519
Cs       3.66296659      10.22532312      17.73131771      -0.28755878      -0.12021523      -0.14660146       0.24218822       3.78194688       1.38547354
Cs       3.33162843       9.18595951      23.34659182      -0.17811832      -0.04306972       0.19551163      -0.56266184       1.54633331      -3.88782729
Cs       9.22446521      14.97642726       0.21855723       0.09140721       0.23315288       0.07378880       2.24954860       4.37562864      -1.24536582
Cs       9.81085687       9.29978336      24.99190356      -0.32095453      -0.34465652      -0.12900869       2.33816509       2.29041750       1.89288762
Cs       3.40207140      15.47843533      23.66980330      -0.14647585       0.12104492      -0.09014200      -1.66198509       5.55892471      -1.87024857
Cs       3.44602391      15.96656177      17.32452666       0.07747741      -0.21709566       0.04115436      -0.72581184       2.51241474      -3.01510607
Cs       9.32127851       9.16357598      18.19282440       0.06979425      -0.26233606       0.00045900       4.29292657      -0.77074731       0.91530978
Pb       0.23404938       5.78054544      21.07773782      -0.13943837       0.31022517      -0.03736746      -3.24523968      -2.09279630       1.05262109
Pb       6.74922060      12.20222557      21.26949362      -0.19971971      -0.25720068      -0.12611905      -5.39291733       1.44715202       3.80878212
Pb       0.35105505      12.42567863      21.32011274      -0.27714523      -0.43705777       0.18105024       3.46232013       0.56819928      -4.81958158
Pb       6.61406611       5.75306658      20.90653901       0.67520728      -0.08617918       0.60028021       0.31989127      -0.28733730       0.66454662
Pb      -0.08741985       5.82620974      15.13887035       0.23069870       0.78128592       0.17836789       0.05993668       0.98244953      -2.10094790
Pb       6.84314148      12.48169792      14.86923032       0.03652305       0.33009658      -0.32936656      -2.28435920      -3.16376503      -1.64428043
Pb       0.27451972      12.25310363      15.10747318       0.05655538      -0.19891120      -0.20564000       4.89315122      -1.17426447       5.05056524
Pb       6.17231705       6.28873098      15.46604850       0.11489892      -0.04120957      -0.98949770       3.19113603      -2.18063210       2.91849035
I       25.26655202       9.07086063      21.79029162      -0.12889983       0.01932057      -0.04789247      -0.68023900       0.49175823       1.71347826
I        5.99038071      14.97009264      20.26457872       0.02336890       0.55803622       0.10981153      -6.88362883      -0.24350669      -1.99115129
I       12.67820223      15.04936018      20.07456890       0.34468694       0.03956246      -0.18087864       0.79647936      -1.55474335       1.83826457
I        7.34956694       8.90795350      21.49665058      -0.09640173      -0.03787399       0.12207210      -0.50150247      -3.51373776      -5.21745820
I        9.78161059      12.46024700      21.56709409       0.13166420       0.00885638       0.07805735       1.30533960       1.54728432      -4.41095385
I        3.11126615      18.83476945      21.37600732      -0.39013653      -0.34530013      -0.12534285      -0.68170991       2.52292828       0.16701977
I        3.48123683      12.25822530      21.24947582       0.17787091      -0.04574745      -0.29755188      -0.15443392      -0.89937217      -0.80692387
I        9.76850427       5.40094515      19.00226123      -0.08055299      -0.19905174       0.23418343       1.36715365      -4.12933526       0.77205456
I       12.08072318      15.29526988      15.30671672       0.01427219      -0.23939522       0.02877305      -1.60209067      -0.47848510      -0.94341898
I        6.40206297       9.46204593      14.36760681      -0.12455895      -0.02940966      -0.12392036      -3.10431898       0.73605759       0.61827928
I        0.99769381       9.46209695       1.93576195      -0.09325314       0.12318175      -0.02263136       1.00694603      -1.72451174       2.02346966
I        6.78112144      15.48069892       3.02731508       0.00485843       0.81750697       0.15697757      -1.50431588       2.47588962       0.62806770
I        2.92357861      13.13228360       3.73802600       0.35134231       0.18962777      -0.01272669       3.87551203      -2.79561336      -2.77069599
I        9.43131256       7.77521305       3.22978014       0.35067026       0.00018687       0.02553404       0.49713566       2.89609845       4.46712511
I        9.87375563      11.98591595      13.77154954      -0.16357966      -0.22782791       0.14724019       3.09055367      -0.62550009       3.18049334
I        3.43641532      17.88558421      13.98410744      -0.00104724      -0.16877080      -0.14696280       0.90922184       0.15655128       0.77577640
I       24.67878283      17.63654978      23.66410524      -0.24147833      -0.34209533      -0.16335007       0.03765436      -1.88523491       1.12326692
I        5.95736426      12.58091497      24.35792334       0.05347901      -0.04160664       0.03805860       1.15696735       0.07211894       0.83212071
I       13.09988689       6.29835948      17.81653020       0.04087425      -0.01390170       0.37108214      -5.02203506      -1.40115976       0.96930976
I        6.47021344      11.77266777      17.90763668       0.28481731      -0.09085464       0.37265925       2.91256454       1.20088425      -5.66862912
I       26.02409709      11.32585032      18.01929599      -0.41939976      -0.06470708      -0.13383165      -0.14417818      -1.05302787      -5.20914513
I        5.82083025      18.97391471      18.12270721      -0.33509505       0.49178976      -0.31805976       0.50491446       1.24094324       3.48593125
I       12.67283679      12.87714375      24.02309848       0.18705906       0.04552487       0.02795526       0.66246778      -2.36682801       6.75996763
I        7.34239254       5.65784521      24.20953117      -0.02716716      -0.01701574       0.16530290      -1.11089759      -3.21392228       2.93239889
Cs       9.21801761       3.23866780       6.00961913       0.24447359      -0.11567896      -0.02748923       0.04653027      -3.58440168      -0.11516454
Cs       3.05003573      21.87239071       4.15285286       0.19213011       0.03514483      -0.05940693       0.61196036      -1.21985158      -1.38630257
Cs       2.58242851      22.27207962      11.15793607       0.45371264       0.09983432      -0.01116126      -0.26224280       0.98947206       0.47739418
Cs      10.11141592       3.50104025      11.93144147      -0.39081916      -0.16000207       0.13710316      -0.40971645       2.46865807       0.58821523
Cs       9.29733384      21.91946344      11.82372504      -0.02016886      -0.10163952       0.16196090       2.68022327      -3.44123762       2.99564594
Cs       3.61891507       3.73622188      11.51011616      -0.33549382       0.20176756      -0.10214332      -4.71508984       1.91765720      -5.55963806
Cs       3.32670271       3.66653721       4.79115767       0.10444779      -0.12538625       0.41000501      -3.87400123       0.73374276      -6.17773140
Cs       9.31299409      21.28726454       5.80500217       0.18702152       0.25863632      -0.20572859       3.09235714       3.06540889      -0.01660304
Pb       0.14119479      19.15649042       8.27569886       0.00502524       0.08091008       0.27983497       0.61476723      -0.20726401      -1.46398428
Pb       6.11468774       0.23655160       8.35520671      -0.52697544      -0.48479241      -0.04416823       2.51551566       2.08972284      -0.54293587
Pb       0.04435728       0.22204321       8.42343588       0.54949184       0.46789014       0.29739023      -1.83250509      -3.80049151       0.93648723
Pb       6.53873203      18.91210844       8.40621722       0.09404731       0.17888034       0.62609917       0.75063470      -3.85102441      -0.84573470
Pb      -0.10848025      18.82272031       1.96430470      -0.11747599      -0.06627841       0.21365828       4.25166441      -2.79461331      -4.99133562
Pb       6.69084895       0.19384757       2.12878841      -0.09627735      -0.11650778       0.24422209      -2.50480367       4.22466212       1.12661094
Pb       0.25139199       0.10052556       2.47746344      -0.09443733       0.43099732       0.03253992      -2.08328630      -0.89477348      -0.28047758
Pb       6.68003694      18.81822630       2.09870426      -0.35039077      -0.14033557       0.43882246       3.16920098       2.45084336      -0.89284569
I       24.68584228      22.25058667       8.92058530       0.00351801      -0.89240242       0.17511806       2.58748635      -1.15176480       4.42071205
I        5.73355078       3.31091112       8.23257372      -0.34245960       0.47526375      -0.35065869       0.14603267      -0.13604996      -8.39229510
I       13.50421755       3.18446965       7.78508940      -0.22350546      -0.01547571      -0.05681531       3.38938129      -0.55639793      -1.00114694
I        7.17071423      22.20630419       8.59557190      -0.09906523      -0.28035520       0.31718849      -3.76228847       0.41482667      -4.82810634
I        9.16658856       0.85005988       9.03304580      -0.08267025       0.13798291       0.09557092       1.64238098      -3.42808487      -1.00677788
I        2.84684219       7.71399032      10.25755981       0.45916813      -0.48371144      -0.27425019      -0.55581199       3.71075444       1.37171767
I        3.00077815      23.74645827       7.43139539       0.75878575       0.10499961       0.10378197      -2.96872399      -0.19720504       0.16070769
I        9.51715109      18.09539543       7.36027213       0.21558123       0.21661338       0.32185460      -0.73672489       1.80873434      -1.99974030
I       11.78976015       3.25276512       2.78925413      -0.07051299      -0.34452595       0.16986926      -0.81132566       1.00432776      -0.18664845
I        6.22042564      22.06484145       1.24491410       0.13519355      -0.59020890       0.16443028      -0.51576104       4.64375951      -1.62301912
I        0.85897739      21.75660545      14.53684738      -0.22097451      -0.33997447      -0.02453877      -3.57704582      -1.30701096       0.59367758
I        6.59547808       3.40202881      15.94093481      -0.09238386      -0.92349511      -0.33046393       0.72338139       3.53349543       1.31427603
I        3.01756328       1.13876096      15.02159875       0.13217209      -0.18955967       0.27232621       1.39254693       0.51321924       5.22321738
I        9.50854768      20.02090174      15.21263728       0.04566750      -0.06192933       0.21763203       2.04367299      -1.78760438       0.03382786
I        9.73358985      24.17551551       0.56538499      -0.12832659       0.15712546       0.20049981      -2.17036366       2.05687780      -0.70801405
I        3.46678994       5.15932454       2.14199477       0.04687643       0.17160752      -0.28738922       1.81051814       1.33763295      -2.47945876
I       24.83550937       5.50493718      11.93695983      -0.16905275      -0.17115936      -0.25329258       2.23867106      -4.50848459      -2.02065318
I        5.59891622       0.87605524      11.49026475       0.17230803      -0.19126840       0.02320955      -3.33212594      -4.72237134      -0.77530207
I       12.94865974      19.63989572       5.40186528       0.16131779      -0.11431202       0.24654292       3.82572132      -0.55155233       3.06864268
I        7.05625404      24.21619743       5.10862010      -0.01636930       0.27986813      -0.19345510      -2.23824323      -2.14225279      -2.20341704
I       25.04932589      23.64450243       5.26690023       0.04513504       0.30735278      -0.42159287      -3.61943506       3.60367774      -4.18032735
I        6.07492784       6.93122917       6.04565737      -0.20519401      -0.00090380      -0.27389801      -0.40583353       0.41599667      -2.56884277
I       12.86769693       0.50801566      11.41260712       0.17001708       0.37361362       0.00372397      -4.08683133       1.72873575       0.70098577
I        7.22480718      18.36912538      11.84270666       0.03139731      -0.06838816      -0.37545485       2.06362794       2.15537592      -1.95946439
Cs       9.83353003       1.32116970      17.58133720      -0.08138717       0.24571551       0.17326939       1.08862498      -0.03387862       4.81463413
Cs       2.92694588      22.62560245      17.57523592       0.23597100      -0.36563847      -0.06441879      -0.59874436       1.86308454       1.99196293
Cs       3.48643634      21.53325370      23.61773180      -0.13860796       0.18846358       0.09320885       0.23531498       2.36412225       2.97843560
Cs       9.44906626       2.76400865      -0.91388701      -0.05364835       0.09587294      -0.18322205      -1.66323692       3.69808733      -0.03308852
Cs       9.50150537      20.25693038      23.99822586       0.15366230      -0.13885817      -0.21805935       0.47954056       4.18726022      -1.57434645
Cs       3.65529748       2.82311078      23.13883074       0.05779123       0.14820435      -0.00407456       1.84389457      -0.53860641      -1.81297354
Cs       3.01481570       4.10338957      17.35679163       0.37939747      -0.05436791       0.29468930      -0.03405943      -0.08847053      -3.35390480
Cs       9.46193444      21.78764856      18.80697999      -0.01242240      -0.11822306      -0.09832050      -1.15042519      -3.36435919       4.60641887
Pb      -0.19013285      18.31591816      20.49573293       0.24813197      -0.28788112       0.40738202      -0.51303405       3.02833260       1.47591246
Pb       6.16373967      -0.54722505      20.64722308       0.40707808       0.51077537       0.20340785      -4.76715714      -2.81221934       3.15261403
Pb      -0.33550000      -0.25239523      21.25074177       0.12080229       0.60809816       0.02045993      -0.85548693       1.46121567       0.18796056
Pb       6.31240007      18.28258074      20.98851142      -0.17247832      -0.46101170      -0.45580311       3.44111714      -2.35889464       0.04288780
Pb       0.57296883      18.23961679      14.54744235      -0.18917158       0.43180484      -0.24569035      -1.45800080       0.95783732      -2.92024208
Pb       5.90974956       0.13950194      14.44143574       0.53424539       0.33941748      -0.02850898      -0.83245495       3.27666758      -0.21023906
Pb       0.05734822       0.08312282      14.83505336      -0.06740799      -0.35631107      -0.21737613       0.54825420      -1.86369334       2.28881621
Pb       6.61068039      18.71243065      14.87048875      -0.04414128      -0.44358542       0.11640888       2.33304727       6.34859419      -1.02041702
I       24.43545965      21.55573844      21.20034886      -0.10459871      -0.41778608      -0.01788575      -0.32426207      -8.08940725      -1.27837050
I        6.31288027       2.68418322      19.99348242      -0.19318184      -0.11612599       0.00813456       1.41977008       0.26261716       0.04104915
I       13.77942760       2.67298659      20.45730413      -0.29272623      -0.00932245      -0.05386331       3.42428422       2.93060164      -4.15385427
I        6.59804562      21.18948113      21.44217608       0.14463597       0.21961298       0.17724122      -1.45716646      -3.62584868      -3.34222390
I        9.64829662      -0.48724383      20.75584501       0.35583771      -0.30579491      -0.05056634      -1.22749670       0.48008192       5.01610506
I        3.49743770       6.26247450      20.91245724       0.19409406      -0.07015332       0.20530021      -0.84442776      -5.79798569      -0.60292452
I        2.99376751      24.18764336      21.04951222       0.10153758       0.03994340      -0.31638625       0.05634644      -0.21107330       2.87853095
I        9.52761689      18.28184807      20.04557320      -0.44009793      -0.06292633       0.19371762       0.10189768      -0.62424333       1.53983282
I       12.41731830       2.57323408      15.11118458       0.13059188       0.53201334       0.23935655      -0.27524833      -1.23124846      -1.46350061
I        5.36721128      21.75992409      14.24482578      -0.00951644       0.34244415      -0.21388176      -1.91193334       0.62243319      -0.51852319
I        0.30834379      21.90014673       0.96725735      -0.00774331       0.05248771       0.22620807       2.75834895       1.37856153      -7.00472607
I        7.47729093       3.33083920       2.56839790      -0.08422529      -0.00593290       0.14130668      -1.92779015       3.19658314      -0.58262859
I        3.52351341       0.63805074       2.61930548      -0.05134528      -0.22850599       0.03376037       2.62259907      -3.24826683       1.08367399
I        9.83920114      18.83788339       2.54414035      -0.53050570       0.17601917       0.12758604      -2.76469210      -1.89722191      -1.58926188
I        9.45834915      25.20881151      13.55132651      -0.16436273      -0.09226429       0.40927170       2.57349191       0.79718790       0.07612865
I        2.94232285       6.35465293      14.25622144       0.36844896      -0.09540207       0.06569670      -1.53667872      -2.67984805      -4.76934746
I       25.44327774       4.54444167      24.12902374      -0.13113194      -0.01367467       0.09634342       3.02505892      -0.34588840       1.13202525
I        5.94515963      -0.16535709      23.89520706       0.13199164       0.17672603      -0.08318458       2.06473079      -2.70946826       1.53536892
I       13.47520637      19.27153800      17.81417757      -0.33501527      -0.22116976       0.31890090      -3.82938018       2.06975779      -0.26222613
I        6.16054266      23.81296453      17.25757071       0.17858235      -0.07343610       0.23368855      -0.31602055       1.36344071      -0.01988824
I       24.24395275      24.02008989      17.75385161       0.25837438       0.27635140      -0.25851261      -0.12488406       1.66370476       0.58915846
I        5.76805938       6.96120355      18.14300230      -0.15533419       0.26228040      -0.07153402       0.54162166      -5.13079089       0.25657932
I       13.74924756       0.47009610      23.90895178      -0.28422743      -0.40211432      -0.45992117       5.64387551      -2.35690512       2.14561255
I        6.62572517      17.07584264      24.06418610       0.32132513      -0.04798073      -0.02118556       2.77623518      -2.15179782       1.20687695
Cs      22.36966261      16.00123315       6.34242450      -0.07138144      -0.00233548      -0.31063466      -0.40960665      -1.19164923      -0.43629879
Cs      15.76069912       9.99512530       4.51120870       0.08744749      -0.40580882      -0.00013913       0.94770880       2.27716551      -2.93595113
Cs      16.08668547      10.16798073      11.56315899      -0.22799214      -0.11520627      -0.33470595       1.47479989      -0.80144657       3.71120072
Cs      22.36029507      15.29146928      12.58815878      -0.19566985       0.18253317       0.02242980      -3.34941810       2.49673298       1.49192310
Cs      22.43678646       9.14263506      12.50576318      -0.15773764      -0.12376891      -0.21051921       6.00971335      -2.16685151       0.44451349
Cs      15.53861621      16.18182355      11.42971223       0.21978958       0.13611776      -0.15162119      -0.80130854      -4.57069482       3.00327589
Cs      15.89127410      15.80763307       5.21342459      -0.22398199      -0.03117727       0.00677790       1.19666122       2.22732020       1.23868433
Cs      22.12597532       8.24391603       6.02777284      -0.08080268       0.28964854      -0.21021235       0.90533054       3.35343895       4.88489861
Pb      12.61633242       6.01756602       8.26591770       0.43247185       0.14946252       0.21234307      -3.05800840       1.59467246       0.29061518
Pb      18.71450622      12.31503632       8.38256216       0.49101091       0.06111583      -0.26319133       4.99861126       2.31607536       1.09901230
Pb      12.73064771      12.12605725       8.55492836       0.01118813       0.71235873      -0.00527679       3.60701711      -1.98342399      -5.51627824
Pb      18.99621980       6.07338040       8.68622926      -0.31901604       0.44991547       0.17704695      -0.81969060       4.00620087      -5.89045480
Pb      12.62560732       6.06189656       2.64860710      -0.46888546       0.48475191      -0.65761545      -2.32927781       1.33418928       1.31543086
Pb      19.26098559      12.55026022       2.29485452       0.30100654       0.21637066      -0.55054161      -5.73239676      -1.25697591      -1.53086577
Pb      13.00829309      12.26991397       1.99564369      -0.34555657      -0.04209475       0.79417379      -2.06965249      -3.06670110       3.15390635
Pb      18.79183970       6.65934974       2.32667968       0.10613803      -0.40096813      -0.18566013      -1.21498223       3.25975537       1.31659713
I       12.74271616       9.33847059       9.01256534      -0.21180687      -0.40987222       0.25516124      -0.02219189      -0.75807748      -3.27561076
I       18.68673858      15.52695467       7.72255036      -0.09699540       0.40071887       0.33623752       0.28689053      -2.62841120      -0.72211612
I        0.56753586      15.83349081       8.36203434      -0.00427377       0.28233875      -0.44297528      -4.26334190      -0.43475585       2.69379989
I       20.42025894       9.24982365       9.06775836      -0.35116852       0.11460752      -0.05806784      -2.72934198       6.09634616      -3.43542184
I       21.99072073      13.80707319       9.20696998      -0.63989831      -0.14728403       0.13685153      -1.44723628      -1.11935456       2.17863149
I       15.65770989      19.77155986       9.30696784      -0.28425948      -0.32715283      -0.03710572      -2.35099919       1.24372885      -3.85954185
I       15.68877693      11.67301449       7.60160555       0.77074527      -0.01994566       0.16187811      -0.08233217       1.59257757      -0.74736965
I       21.93410433       5.30069867       8.25007099       0.35055752      -0.22308655       0.02337704      -5.20589158      -1.21399286       2.31223141
I       24.62982974      15.59447322       2.54712265      -0.06555798       0.34097177       0.32292727       2.33438142      -4.92922646      -3.00148319
I       18.67268962       9.60338128       1.46906281       0.03918196      -0.25618425       0.00959782       2.36482860       2.22677779      -0.55033929
I       13.28209826       8.80016264      14.05767350      -0.12932723       0.40598793       0.07153449       2.15461279      -0.18203202       3.77096928
I       19.24022144      15.15639695      15.54104675      -0.23944335       0.11991034      -0.27063337      -2.65820116       1.88378537       3.51221756
I       15.75781209      12.77455812      15.61025632       0.20013720      -0.10778286      -0.00649756       3.69323809       0.84208192       1.08420616
I       21.99775507       6.91519877      15.28096149       0.07202211      -0.17545959       0.34578183       2.82883520      -3.08910123       0.87608664