320
Lattice="31.392636507215773 -0.04481615214523286 0.09492011689125937 0.1392903615087138 28.887165468702893 0.25788863917263216 -0.2799812260619887 -0.14238296324623026 16.953981605175922" Properties=species:S:1:pos:R:3:forces:R:3:momenta:R:3 pbc="T T T"
Cs       0.72827410       5.17983722       3.53508704      -0.05948490      -0.02432447       0.02849402      -0.55435690       0.13450853       0.42004829
Cs       4.97977646       7.80300802       8.10006506      -0.07596341      -0.00406740      -0.04047104      -0.96828329       0.39260455       0.34424818
Cs       1.15256476      12.31676290      16.71648250      -0.03349532       0.01602381      -0.03044808       0.32432156       1.46964758       3.15399103
Cs       5.23617248      14.91383200       3.74491220      -0.06989295       0.06239706       0.01057980       0.44872350       0.53571384       0.94755066
Cs       8.69244140       5.52751779       3.63712608       0.19893585      -0.12355400       0.04565192      -0.03404278      -1.41939309      -0.04332199
Cs      12.76006734       7.79572809       8.12767921       0.01223892       0.02347285      -0.06055545       0.81163967       1.83121209       2.01986391
Cs       8.46966118      12.66314953      16.61908845       0.07604506      -0.02216809      -0.01233689      -1.05002824      -1.83166802      -0.40716414
Cs      12.41465523      15.26486364       3.85242211       0.02823773       0.01738434       0.03097415      -1.11983491       0.30485108       1.32562864
Pb       2.41707453      17.14102593       7.86668471      -0.15551042       0.47240618       0.31335231      -2.17951017       1.68896364      -1.37282285
Pb       6.29287645      17.41753517       8.09194425       0.09100236       0.43862386       0.12688588       0.99940305       0.69092033       1.02530570
Pb       3.51453265      10.00876542       3.76942760      -0.08841643       0.35942820       0.13467431       3.00772314       3.37629119       2.16180366
Pb      31.06215496      10.26897145       4.03628230      -0.22871862       0.00460403       0.14482552      -0.57211279      -1.40771640      -0.09708951
Pb      10.25219295      17.52533893       8.18258250       0.19351245       0.32615947       0.13610973       1.47708183       0.51960818      -0.03828867
Pb      14.19521989      17.36494492       8.08244001      -0.34808533       0.06578862       0.20578006       0.17615423       2.28959536       0.32968831
Pb      11.39627242      10.43154326       3.69437165       0.32917665      -0.18314926       0.71625634      -1.31902673       2.37134696      -1.26301897
Pb       7.39946316      10.13168420       3.97429971       0.33644401       0.16663750      -0.17415660      -0.64634786       1.40839581       0.68869207
I        4.22922072       4.30737588       1.70806112      -0.08381520      -0.33587974      -0.47828695       0.68128717      -0.41037766      -0.15072785
I        1.59106405       9.06302801       1.56651789       0.01442825      -0.11787112      -0.29742786       0.71063317      -0.05744292      -0.09380970
I        4.21337525       4.13202581       5.53077512       0.05630416      -0.06346917       0.33011259       1.31462356      -1.14324783       0.00005246
I        1.74249805       8.32432249       5.84357094      -0.01263076       0.27407263      -0.21081875       0.48313319      -1.14110901       0.96632186
I        5.66305395       7.60499252       3.35452265      -0.18131469      -0.14669912       0.07168561       0.27611987      -0.64067117       0.96001344
I        0.26077460       5.44445951       7.98370394       0.26051165      -0.18071560      -0.01429066       1.45465832       0.35117848      -2.03152466
I        5.50215406      11.20953904       6.16863996      -0.06614325      -0.01689660       0.13928065      -1.31690381      -0.25626778      -0.26999879
I        0.18113206      15.90385508       5.85216864       0.13851214       0.07484798      -0.06150626       1.05037841      -0.37568789      -0.68014024
I        5.63952231      11.85111065       1.85335660      -0.16598894      -0.14169094      -0.03047533       0.89108015       0.37504125       1.65543871
I        0.42679937      15.99428627       1.70581685       0.20980836      -0.00652716      -0.05192603      -0.02429603       2.10281342       0.82549145
I        4.52694070      14.80334345       7.83788310      -0.13653590      -0.17976945      -0.00568318      -0.72266079       0.15574441      -0.95332884
I        1.76679095      12.80043782       4.11337146       0.24001496      -0.29286555       0.00360268       0.17409602      -0.35420582       1.52445347
I       12.31284928       4.18919092       1.99747041      -0.01786856      -0.08449344      -0.32506093      -0.98138155       0.14647781       0.56742338
I        9.65000387       9.48736952       1.44035476      -0.12715065      -0.09923207      -0.13963434      -1.38851730       0.24337802      -0.72860881
I       12.05806161       4.50158286       5.90988507       0.02481929       0.05430572       0.03145659      -1.08179806      -0.07292452       1.73028600
I        9.41802463       8.52336168       5.77926611       0.25639418       0.13921058      -0.13053014      -1.31163978       1.03376355       0.35578627
I       13.38888834       7.78653213       3.38265571       0.02575281       0.10943045       0.05147536       1.79908851      -2.17335679       1.13866889
I        8.05909103       5.65588574       8.31822687      -0.08854077      -0.10605213       0.03767148       1.83691552       1.11312881      -1.05397928
I       13.64125348      11.23446609       6.48866331      -0.22846855      -0.14491139      -0.37183476      -0.17402008       0.47395135       3.57539415
I        8.38716347      16.56702605       5.84597016      -0.14232649      -0.17501794      -0.26067961      -1.71176122       3.10556543       0.30462971
I       13.53040789      12.17526614       1.99960231       0.05668425      -0.20210392       0.15255451      -0.79791105      -0.37698253      -0.49892200
I        8.45087936      15.93846142       1.68815759      -0.22975517       0.03921234       0.07772789       0.21425172       2.08849718      -0.94483470
I       11.88299827      14.96560151       8.01090291       0.09957826      -0.25823312      -0.09382799       0.42789546       0.17545369       2.00667116
I        9.38964814      12.74865424       4.38012919      -0.10829504       0.26568605       0.00079944       1.66334563       4.75855264      -2.03950959
Cs       0.58828349       5.10864574      12.01207784      -0.05948490      -0.02432447       0.02849402      -0.55435690       0.13450853       0.42004829
Cs       4.83978585       7.73181654      16.57705586      -0.07596341      -0.00406740      -0.04047104      -0.96828329       0.39260455       0.34424818
Cs       1.29255538      12.38795438       8.23949169      -0.03349532       0.01602381      -0.03044808       0.32432156       1.46964758       3.15399103
Cs       5.09618187      14.84264052      12.22190300      -0.06989295       0.06239706       0.01057980       0.44872350       0.53571384       0.94755066
Cs       8.55245079       5.45632631      12.11411688       0.19893585      -0.12355400       0.04565192      -0.03404278      -1.41939309      -0.04332199
Cs      12.62007673       7.72453661      16.60467001       0.01223892       0.02347285      -0.06055545       0.81163967       1.83121209       2.01986391
Cs       8.60965180      12.73434101       8.14209764       0.07604506      -0.02216809      -0.01233689      -1.05002824      -1.83166802      -0.40716414
Cs      12.27466462      15.19367216      12.32941291       0.02823773       0.01738434       0.03097415      -1.11983491       0.30485108       1.32562864
Pb       2.27708392      17.06983445      16.34367551      -0.15551042       0.47240618       0.31335231      -2.17951017       1.68896364      -1.37282285
Pb       6.15288584      17.34634369      16.56893505       0.09100236       0.43862386       0.12688588       0.99940305       0.69092033       1.02530570
Pb       3.37454204       9.93757394      12.24641840      -0.08841643       0.35942820       0.13467431       3.00772314       3.37629119       2.16180366
Pb      30.92216434      10.19777997      12.51327310      -0.22871862       0.00460403       0.14482552      -0.57211279      -1.40771640      -0.09708951
Pb      10.11220234      17.45414745      16.65957330       0.19351245       0.32615947       0.13610973       1.47708183       0.51960818      -0.03828867
Pb      14.05522928      17.29375344      16.55943081      -0.34808533       0.06578862       0.20578006       0.17615423       2.28959536       0.32968831
Pb      11.25628181      10.36035178      12.17136245       0.32917665      -0.18314926       0.71625634      -1.31902673       2.37134696      -1.26301897
Pb       7.25947255      10.06049272      12.45129051       0.33644401       0.16663750      -0.17415660      -0.64634786       1.40839581       0.68869207
I        4.08923011       4.23618440      10.18505192      -0.08381520      -0.33587974      -0.47828695       0.68128717      -0.41037766      -0.15072785
I        1.45107344       8.99183653      10.04350869       0.01442825      -0.11787112      -0.29742786       0.71063317      -0.05744292      -0.09380970
I        4.07338464       4.06083433      14.00776592       0.05630416      -0.06346917       0.33011259       1.31462356      -1.14324783       0.00005246
I        1.60250744       8.25313101      14.32056174      -0.01263076       0.27407263      -0.21081875       0.48313319      -1.14110901       0.96632186
I        5.52306334       7.53380104      11.83151345      -0.18131469      -0.14669912       0.07168561       0.27611987      -0.64067117       0.96001344
I        0.12078399       5.37326803      16.46069474       0.26051165      -0.18071560      -0.01429066       1.45465832       0.35117848      -2.03152466
I        5.36216345      11.13834756      14.64563076      -0.06614325      -0.01689660       0.13928065      -1.31690381      -0.25626778      -0.26999879
I        0.04114145      15.83266360      14.32915944       0.13851214       0.07484798      -0.06150626       1.05037841      -0.37568789      -0.68014024
I        5.49953170      11.77991917      10.33034740      -0.16598894      -0.14169094      -0.03047533       0.89108015       0.37504125       1.65543871
I        0.28680876      15.92309479      10.18280765       0.20980836      -0.00652716      -0.05192603      -0.02429603       2.10281342       0.82549145
I        4.38695009      14.73215197      16.31487390      -0.13653590      -0.17976945      -0.00568318      -0.72266079       0.15574441      -0.95332884
I        1.62680034      12.72924634      12.59036226       0.24001496      -0.29286555       0.00360268       0.17409602      -0.35420582       1.52445347
I       12.17285867       4.11799944      10.47446121      -0.01786856      -0.08449344      -0.32506093      -0.98138155       0.14647781       0.56742338
I        9.51001326       9.41617804       9.91734556      -0.12715065      -0.09923207      -0.13963434      -1.38851730       0.24337802      -0.72860881
I       11.91807100       4.43039138      14.38687587       0.02481929       0.05430572       0.03145659      -1.08179806      -0.07292452       1.73028600
I        9.27803402       8.45217020      14.25625691       0.25639418       0.13921058      -0.13053014      -1.31163978       1.03376355       0.35578627
I       13.24889773       7.71534065      11.85964651       0.02575281       0.10943045       0.05147536       1.79908851      -2.17335679       1.13866889
I        7.91910042       5.58469426      16.79521767      -0.08854077      -0.10605213       0.03767148       1.83691552       1.11312881      -1.05397928
I       13.50126287      11.16327461      14.96565411      -0.22846855      -0.14491139      -0.37183476      -0.17402008       0.47395135       3.57539415
I        8.24717286      16.49583457      14.32296096      -0.14232649      -0.17501794      -0.26067961      -1.71176122       3.10556543       0.30462971
I       13.39041728      12.10407466      10.47659311       0.05668425      -0.20210392       0.15255451      -0.79791105      -0.37698253      -0.49892200
I        8.31088875      15.86726994      10.16514839      -0.22975517       0.03921234       0.07772789       0.21425172       2.08849718      -0.94483470
I       11.74300766      14.89441003      16.48789371       0.09957826      -0.25823312      -0.09382799       0.42789546       0.17545369       2.00667116
I        9.24965753      12.67746276      12.85711999      -0.10829504       0.26568605       0.00079944       1.66334563       4.75855264      -2.03950959
Cs       0.79791928      19.62341995       3.66403136      -0.05948490      -0.02432447       0.02849402      -0.55435690       0.13450853       0.42004829
Cs       5.04942164      22.24659075       8.22900938      -0.07596341      -0.00406740      -0.04047104      -0.96828329       0.39260455       0.34424818
Cs       1.22220994      26.76034563      16.84542681      -0.03349532       0.01602381      -0.03044808       0.32432156       1.46964758       3.15399103
Cs       5.16652730       0.47024927       3.61596788      -0.06989295       0.06239706       0.01057980       0.44872350       0.53571384       0.94755066
Cs       8.76208658      19.97110052       3.76607040       0.19893585      -0.12355400       0.04565192      -0.03404278      -1.41939309      -0.04332199
Cs      12.82971252      22.23931082       8.25662353       0.01223892       0.02347285      -0.06055545       0.81163967       1.83121209       2.01986391
Cs       8.53930636      27.10673226      16.74803276       0.07604506      -0.02216809      -0.01233689      -1.05002824      -1.83166802      -0.40716414
Cs      12.34501005       0.82128091       3.72347779       0.02823773       0.01738434       0.03097415      -1.11983491       0.30485108       1.32562864
Pb       2.34742935       2.69744320       7.73774039      -0.15551042       0.47240618       0.31335231      -2.17951017       1.68896364      -1.37282285
Pb       6.22323127       2.97395244       7.96299993       0.09100236       0.43862386       0.12688588       0.99940305       0.69092033       1.02530570
Pb       3.58417783      24.45234815       3.89837192      -0.08841643       0.35942820       0.13467431       3.00772314       3.37629119       2.16180366
Pb      31.13180014      24.71255418       4.16522662      -0.22871862       0.00460403       0.14482552      -0.57211279      -1.40771640      -0.09708951
Pb      10.18254777       3.08175620       8.05363818       0.19351245       0.32615947       0.13610973       1.47708183       0.51960818      -0.03828867
Pb      14.12557471       2.92136219       7.95349569      -0.34808533       0.06578862       0.20578006       0.17615423       2.28959536       0.32968831
Pb      11.46591760      24.87512599       3.82331597       0.32917665      -0.18314926       0.71625634      -1.31902673       2.37134696      -1.26301897
Pb       7.46910834      24.57526693       4.10324403       0.33644401       0.16663750      -0.17415660      -0.64634786       1.40839581       0.68869207
I        4.29886590      18.75095861       1.83700544      -0.08381520      -0.33587974      -0.47828695       0.68128717      -0.41037766      -0.15072785
I        1.66070923      23.50661074       1.69546221       0.01442825      -0.11787112      -0.29742786       0.71063317      -0.05744292      -0.09380970
I        4.28302043      18.57560854       5.65971944       0.05630416      -0.06346917       0.33011259       1.31462356      -1.14324783       0.00005246
I        1.81214323      22.76790522       5.97251526      -0.01263076       0.27407263      -0.21081875       0.48313319      -1.14110901       0.96632186
I        5.73269913      22.04857525       3.48346697      -0.18131469      -0.14669912       0.07168561       0.27611987      -0.64067117       0.96001344
I        0.33041978      19.88804224       8.11264826       0.26051165      -0.18071560      -0.01429066       1.45465832       0.35117848      -2.03152466
I        5.57179924      25.65312177       6.29758428      -0.06614325      -0.01689660       0.13928065      -1.31690381      -0.25626778      -0.26999879
I        0.11148688       1.46027235       5.72322432       0.13851214       0.07484798      -0.06150626       1.05037841      -0.37568789      -0.68014024
I        5.70916749      26.29469338       1.98230092      -0.16598894      -0.14169094      -0.03047533       0.89108015       0.37504125       1.65543871
I        0.35715419       1.55070354       1.57687253       0.20980836      -0.00652716      -0.05192603      -0.02429603       2.10281342       0.82549145
I        4.45729552       0.35976072       7.70893878      -0.13653590      -0.17976945      -0.00568318      -0.72266079       0.15574441      -0.95332884
I        1.83643613      27.24402055       4.24231578       0.24001496      -0.29286555       0.00360268       0.17409602      -0.35420582       1.52445347
I       12.38249446      18.63277365       2.12641473      -0.01786856      -0.08449344      -0.32506093      -0.98138155       0.14647781       0.56742338
I        9.71964905      23.93095225       1.56929908      -0.12715065      -0.09923207      -0.13963434      -1.38851730       0.24337802      -0.72860881
I       12.12770679      18.94516559       6.03882939       0.02481929       0.05430572       0.03145659      -1.08179806      -0.07292452       1.73028600
I        9.48766981      22.96694441       5.90821043       0.25639418       0.13921058      -0.13053014      -1.31163978       1.03376355       0.35578627
I       13.45853352      22.23011486       3.51160003       0.02575281       0.10943045       0.05147536       1.79908851      -2.17335679       1.13866889
I        8.12873621      20.09946847       8.44717119      -0.08854077      -0.10605213       0.03767148       1.83691552       1.11312881      -1.05397928
I       13.71089866      25.67804882       6.61760763      -0.22846855      -0.14491139      -0.37183476      -0.17402008       0.47395135       3.57539415
I        8.31751829       2.12344332       5.71702584      -0.14232649      -0.17501794      -0.26067961      -1.71176122       3.10556543       0.30462971
I       13.60005307      26.61884887       2.12854663       0.05668425      -0.20210392       0.15255451      -0.79791105      -0.37698253      -0.49892200
I        8.38123418       1.49487869       1.55921327      -0.22975517       0.03921234       0.07772789       0.21425172       2.08849718      -0.94483470
I       11.81335309       0.52201878       7.88195859       0.09957826      -0.25823312      -0.09382799       0.42789546       0.17545369       2.00667116
I        9.45929332      27.19223697       4.50907351      -0.10829504       0.26568605       0.00079944       1.66334563       4.75855264      -2.03950959
Cs       0.65792867      19.55222847      12.14102216      -0.05948490      -0.02432447       0.02849402      -0.55435690       0.13450853       0.42004829
Cs       4.90943103      22.17539927      16.70600018      -0.07596341      -0.00406740      -0.04047104      -0.96828329       0.39260455       0.34424818
Cs       1.36220056      26.83153711       8.36843601      -0.03349532       0.01602381      -0.03044808       0.32432156       1.46964758       3.15399103
Cs       5.02653669       0.39905778      12.09295868      -0.06989295       0.06239706       0.01057980       0.44872350       0.53571384       0.94755066
Cs       8.62209597      19.89990904      12.24306120       0.19893585      -0.12355400       0.04565192      -0.03404278      -1.41939309      -0.04332199
Cs      12.68972191      22.16811934      16.73361433       0.01223892       0.02347285      -0.06055545       0.81163967       1.83121209       2.01986391
Cs       8.67929698      27.17792374       8.27104196       0.07604506      -0.02216809      -0.01233689      -1.05002824      -1.83166802      -0.40716414
Cs      12.20501944       0.75008942      12.20046859       0.02823773       0.01738434       0.03097415      -1.11983491       0.30485108       1.32562864
Pb       2.20743874       2.62625171      16.21473119      -0.15551042       0.47240618       0.31335231      -2.17951017       1.68896364      -1.37282285
Pb       6.08324066       2.90276095      16.43999073       0.09100236       0.43862386       0.12688588       0.99940305       0.69092033       1.02530570
Pb       3.44418722      24.38115667      12.37536272      -0.08841643       0.35942820       0.13467431       3.00772314       3.37629119       2.16180366
Pb      30.99180952      24.64136270      12.64221742      -0.22871862       0.00460403       0.14482552      -0.57211279      -1.40771640      -0.09708951
Pb      10.04255716       3.01056471      16.53062898       0.19351245       0.32615947       0.13610973       1.47708183       0.51960818      -0.03828867
Pb      13.98558410       2.85017070      16.43048649      -0.34808533       0.06578862       0.20578006       0.17615423       2.28959536       0.32968831
Pb      11.32592699      24.80393451      12.30030677       0.32917665      -0.18314926       0.71625634      -1.31902673       2.37134696      -1.26301897
Pb       7.32911773      24.50407545      12.58023483       0.33644401       0.16663750      -0.17415660      -0.64634786       1.40839581       0.68869207
I        4.15887529      18.67976713      10.31399624      -0.08381520      -0.33587974      -0.47828695       0.68128717      -0.41037766      -0.15072785
I        1.52071862      23.43541926      10.17245301       0.01442825      -0.11787112      -0.29742786       0.71063317      -0.05744292      -0.09380970
I        4.14302982      18.50441706      14.13671024       0.05630416      -0.06346917       0.33011259       1.31462356      -1.14324783       0.00005246
I        1.67215262      22.69671374      14.44950606      -0.01263076       0.27407263      -0.21081875       0.48313319      -1.14110901       0.96632186
I        5.59270852      21.97738377      11.96045777      -0.18131469      -0.14669912       0.07168561       0.27611987      -0.64067117       0.96001344
I        0.19042917      19.81685076      16.58963906       0.26051165      -0.18071560      -0.01429066       1.45465832       0.35117848      -2.03152466
I        5.43180863      25.58193029      14.77457508      -0.06614325      -0.01689660       0.13928065      -1.31690381      -0.25626778      -0.26999879
I       -0.02850373       1.38908086      14.20021512       0.13851214       0.07484798      -0.06150626       1.05037841      -0.37568789      -0.68014024
I        5.56917688      26.22350190      10.45929172      -0.16598894      -0.14169094      -0.03047533       0.89108015       0.37504125       1.65543871
I        0.21716358       1.47951205      10.05386333       0.20980836      -0.00652716      -0.05192603      -0.02429603       2.10281342       0.82549145
I        4.31730491       0.28856923      16.18592958      -0.13653590      -0.17976945      -0.00568318      -0.72266079       0.15574441      -0.95332884
I        1.69644552      27.17282907      12.71930658       0.24001496      -0.29286555       0.00360268       0.17409602      -0.35420582       1.52445347
I       12.24250385      18.56158217      10.60340553      -0.01786856      -0.08449344      -0.32506093      -0.98138155       0.14647781       0.56742338
I        9.57965844      23.85976077      10.04628988      -0.12715065      -0.09923207      -0.13963434      -1.38851730       0.24337802      -0.72860881
I       11.98771618      18.87397411      14.51582019       0.02481929       0.05430572       0.03145659      -1.08179806      -0.07292452       1.73028600
I        9.34767920      22.89575293      14.38520123       0.25639418       0.13921058      -0.13053014      -1.31163978       1.03376355       0.35578627
I       13.31854291      22.15892338      11.98859083       0.02575281       0.10943045       0.05147536       1.79908851      -2.17335679       1.13866889
I        7.98874560      20.02827699      16.92416199      -0.08854077      -0.10605213       0.03767148       1.83691552       1.11312881      -1.05397928
I       13.57090805      25.60685734      15.09459843      -0.22846855      -0.14491139      -0.37183476      -0.17402008       0.47395135       3.57539415
I        8.17752768       2.05225183      14.19401664      -0.14232649      -0.17501794      -0.26067961      -1.71176122       3.10556543       0.30462971
I       13.46006246      26.54765739      10.60553743       0.05668425      -0.20210392       0.15255451      -0.79791105      -0.37698253      -0.49892200
I        8.24124357       1.42368720      10.03620407      -0.22975517       0.03921234       0.07772789       0.21425172       2.08849718      -0.94483470
I       11.67336248       0.45082729      16.35894939       0.09957826      -0.25823312      -0.09382799       0.42789546       0.17545369       2.00667116
I        9.31930271      27.12104549      12.98606431      -0.10829504       0.26568605       0.00079944       1.66334563       4.75855264      -2.03950959
Cs      16.42459235       5.15742914       3.58254710      -0.05948490      -0.02432447       0.02849402      -0.55435690       0.13450853       0.42004829
Cs      20.67609471       7.78059994       8.14752512      -0.07596341      -0.00406740      -0.04047104      -0.96828329       0.39260455       0.34424818
Cs      16.84888302      12.29435482      16.76394255      -0.03349532       0.01602381      -0.03044808       0.32432156       1.46964758       3.15399103
Cs      20.93249073      14.89142392       3.79237226      -0.06989295       0.06239706       0.01057980       0.44872350       0.53571384       0.94755066
Cs      24.38875965       5.50510971       3.68458614       0.19893585      -0.12355400       0.04565192      -0.03404278      -1.41939309      -0.04332199
Cs      28.45638559       7.77332001       8.17513927       0.01223892       0.02347285      -0.06055545       0.81163967       1.83121209       2.01986391
Cs      24.16597944      12.64074145      16.66654850       0.07604506      -0.02216809      -0.01233689      -1.05002824      -1.83166802      -0.40716414
Cs      28.11097348      15.24245556       3.89988217       0.02823773       0.01738434       0.03097415      -1.11983491       0.30485108       1.32562864
Pb      18.11339278      17.11861785       7.91414477      -0.15551042       0.47240618       0.31335231      -2.17951017       1.68896364      -1.37282285
Pb      21.98919470      17.39512709       8.13940431       0.09100236       0.43862386       0.12688588       0.99940305       0.69092033       1.02530570
Pb      19.21085090       9.98635734       3.81688766      -0.08841643       0.35942820       0.13467431       3.00772314       3.37629119       2.16180366
Pb      15.36583670      10.29137952       3.98882224      -0.22871862       0.00460403       0.14482552      -0.57211279      -1.40771640      -0.09708951
Pb      25.94851120      17.50293085       8.23004256       0.19351245       0.32615947       0.13610973       1.47708183       0.51960818      -0.03828867
Pb      29.89153814      17.34253684       8.12990007      -0.34808533       0.06578862       0.20578006       0.17615423       2.28959536       0.32968831
Pb      27.09259067      10.40913518       3.74183171       0.32917665      -0.18314926       0.71625634      -1.31902673       2.37134696      -1.26301897
Pb      23.09578141      10.10927612       4.02175977       0.33644401       0.16663750      -0.17415660      -0.64634786       1.40839581       0.68869207
I       19.92553897       4.28496780       1.75552118      -0.08381520      -0.33587974      -0.47828695       0.68128717      -0.41037766      -0.15072785
I       17.28738230       9.04061993       1.61397795       0.01442825      -0.11787112      -0.29742786       0.71063317      -0.05744292      -0.09380970
I       19.90969350       4.10961773       5.57823518       0.05630416      -0.06346917       0.33011259       1.31462356      -1.14324783       0.00005246
I       17.43881630       8.30191441       5.89103100      -0.01263076       0.27407263      -0.21081875       0.48313319      -1.14110901       0.96632186
I       21.35937220       7.58258444       3.40198271      -0.18131469      -0.14669912       0.07168561       0.27611987      -0.64067117       0.96001344
I       15.95709285       5.42205143       8.03116400       0.26051165      -0.18071560      -0.01429066       1.45465832       0.35117848      -2.03152466
I       21.19847231      11.18713096       6.21610002      -0.06614325      -0.01689660       0.13928065      -1.31690381      -0.25626778      -0.26999879
I       15.87745031      15.88144700       5.89962870       0.13851214       0.07484798      -0.06150626       1.05037841      -0.37568789      -0.68014024
I       21.33584056      11.82870257       1.90081666      -0.16598894      -0.14169094      -0.03047533       0.89108015       0.37504125       1.65543871
I       16.12311762      15.97187819       1.75327691       0.20980836      -0.00652716      -0.05192603      -0.02429603       2.10281342       0.82549145
I       20.22325895      14.78093537       7.88534316      -0.13653590      -0.17976945      -0.00568318      -0.72266079       0.15574441      -0.95332884
I       17.46310920      12.77802974       4.16083152       0.24001496      -0.29286555       0.00360268       0.17409602      -0.35420582       1.52445347
I       28.00916753       4.16678284       2.04493047      -0.01786856      -0.08449344      -0.32506093      -0.98138155       0.14647781       0.56742338
I       25.34632212       9.46496144       1.48781482      -0.12715065      -0.09923207      -0.13963434      -1.38851730       0.24337802      -0.72860881