320
Lattice="35.78794042575779 -0.37839846603646177 -0.24217113649280456 0.2257959835333163 21.00955516298944 -0.015306901360210465 0.11054213265190213 0.01896394099226511 19.312856914076352" Properties=species:S:1:pos:R:3:forces:R:3:momenta:R:3 pbc="T T T"
Cs       6.84913641       5.28999844       6.08455746      -0.10820869      -0.00637266       0.02911093      -0.31990743       0.37126845       1.51951022
Cs      13.26500990      13.78988586       3.80850951      -0.07510414       0.05401786      -0.17870595      -1.54650081      -0.27606326       0.05359562
Cs       4.10629896      10.64231264       6.26099590       0.00408208       0.04013354      -0.10487514       0.22001223       1.22823676       2.88406325
Cs      15.88461132       8.59338437       3.65464984      -0.07744596       0.02114382      -0.06302457      -0.00003266       0.32829319      -0.19931717
Cs       6.76108431       5.31103125      10.89222151       0.07377710       0.04469410       0.15628607      -0.27009049      -1.28694830       0.00267646
Cs      13.02305894      13.93911204       8.45836412      -0.11448672      -0.11600275      -0.00740191       0.56806963       1.46448598       1.38625640
Cs       4.13381929      10.61881696      11.09086801       0.01852515      -0.02139250       0.00396714      -1.21174917      -1.54780242      -0.55804746
Cs      15.77754857       8.53373355       8.50748481       0.11695678       0.07294386       0.03092587      -0.71927269       0.57819198       1.57991511
Pb       2.11710584       6.09212034       3.76052992       0.31133945       0.33897654       0.20241662      -0.30304047       2.16251408      -2.98695426
Pb      17.87243139      13.03834420       6.10890079       0.21370545       0.23903209       0.00803854      -0.22121202      -0.46685629      -0.20981047
Pb       8.93513515      11.01812458       3.66850013      -0.34880452       0.30183622      -0.15270323       2.33026723       1.58469751       0.87607721
Pb      11.01292264       7.89120143       6.24322323      -0.17130781       0.11354766       0.10440973       0.61077039      -1.70188010       0.07019827
Pb       2.03704652       6.16284329       8.62295082       0.14138404       0.03509147      -0.12806303       1.35575650       0.11645155      -1.10542675
Pb      17.81099240      13.32699766      10.85024127       0.24546260      -0.17557486       0.11489196       1.16248130       0.91172731       0.25590942
Pb       8.88492268      11.40890332       8.34620920       0.23981368      -0.36330780       0.42426877      -1.00517506       2.50153422      -2.24447491
Pb      11.02641296       7.68054404      11.17516026       0.12558547       0.18500853      -0.44471511      -0.56466262      -0.13201488       0.47544228
I        1.03460726       8.14147940       6.30709036       0.01072247      -0.16640606      -0.19878182       0.56673025       0.48580761       0.80036457
I        0.98331617      11.54051110       3.82807467       0.01305011      -0.08267655      -0.22768930       0.40713931       1.12196527       0.95801096
I        9.93595753      13.04326392       5.90169402       0.22244945       0.22009869       0.27539550       2.00654383       0.17386878      -0.56629864
I        9.97747191       5.87469078       3.80584972      -0.05992656       0.04282879      -0.06077539       0.50602347      -1.12809492       0.12690828
I       17.03518025       4.84627555       3.76322854      -0.33696290      -0.20944255       0.07690906       1.00798604       1.14138964       1.26902843
I        3.04602807      14.67627906       6.11746295       0.14888369      -0.15132264       0.23815037       0.61665635       0.69984062      -0.73047365
I       12.07327678       9.83484591       3.74014291      -0.03282724      -0.09718658      -0.04252833      -0.79158099      -0.55289872      -0.34805208
I        7.88344599       9.16995021       6.22759219      -0.00300509       0.07786073      -0.05639949      -1.02269622      -1.16333806      -0.78975986
I        4.84678573       7.81726933       3.81492068      -0.10256548      -0.29985529      -0.03950096       1.78864184      -0.10990699       1.17117529
I       15.20303742      11.64914846       6.08601197      -0.22211837      -0.18985982       0.02974494      -1.57594426       1.95797558       1.31386401
I        6.31605786      12.90446510       3.68123115       0.06859656      -0.28600558       0.08753815       0.30139402      -0.13778749      -0.74392587
I       13.64765824       6.46336149       6.22083803       0.29773326      -0.21780635      -0.16672889       0.40282122      -0.35127964       0.71881982
I        1.09342930       7.94362265      11.13383121      -0.17942890       0.27132315      -0.25280522      -1.97580165       1.27956973       1.73239682
I        1.09914149      11.53808664       8.75593180      -0.03363933      -0.07069397      -0.07692993      -0.09845795       0.87331077       0.27670659
I       10.01930383      13.01512721      11.02583531       0.10470125       0.07421908      -0.07521090      -0.24234427       0.36364510       1.70816901
I        9.74250231       6.02465187       8.56938766       0.16632085      -0.02332420       0.05133484      -1.65096240       0.44124446       1.55422394
I       16.78835953       4.69037459       8.45080408       0.00987003       0.05700208       0.02629979       0.55382124      -1.13945284       0.44194265
I        3.18107082      14.60544715      10.99438284      -0.08806642       0.05775170       0.09282971       1.87721576       0.74438130       0.06802482
I       12.08360099       9.80406577       8.56287515      -0.30162526      -0.04056232       0.14797857       0.52653707       0.88244870       3.80659011
I        7.99517139       9.28239070      10.91262038       0.10604568      -0.14559866      -0.22730632      -0.85129747       1.96039467       1.41043568
I        4.78793325       7.59450197       8.57235795      -0.04826918      -0.01318359       0.01800136      -2.22843544       0.58355459      -1.33958592
I       15.25145989      11.65334998      10.62702876      -0.18273970      -0.00674802       0.27624716       1.64399952       2.04343884       0.21279545
I        6.18279279      12.77769642       8.63215233      -0.05299656       0.12413712      -0.11651738      -0.63210940       2.23294654       1.90694957
I       13.76055523       6.06340457      10.80907275      -0.09947632       0.31167575       0.22591780       1.04652657       3.23729445      -1.39756244
Cs       6.90440748       5.29948041      15.74098592      -0.10820869      -0.00637266       0.02911093      -0.31990743       0.37126845       1.51951022
Cs      13.32028097      13.79936783      13.46493797      -0.07510414       0.05401786      -0.17870595      -1.54650081      -0.27606326       0.05359562
Cs       4.16157003      10.65179461      15.91742436       0.00408208       0.04013354      -0.10487514       0.22001223       1.22823676       2.88406325
Cs      15.93988239       8.60286634      13.31107830      -0.07744596       0.02114382      -0.06302457      -0.00003266       0.32829319      -0.19931717
Cs       6.70581324       5.30154928       1.23579305       0.07377710       0.04469410       0.15628607      -0.27009049      -1.28694830       0.00267646
Cs      13.07833001      13.94859401      18.11479258      -0.11448672      -0.11600275      -0.00740191       0.56806963       1.46448598       1.38625640
Cs       4.07854822      10.60933499       1.43443955       0.01852515      -0.02139250       0.00396714      -1.21174917      -1.54780242      -0.55804746
Cs      15.83281964       8.54321552      18.16391327       0.11695678       0.07294386       0.03092587      -0.71927269       0.57819198       1.57991511
Pb       2.17237691       6.10160231      13.41695838       0.31133945       0.33897654       0.20241662      -0.30304047       2.16251408      -2.98695426
Pb      17.92770246      13.04782617      15.76532925       0.21370545       0.23903209       0.00803854      -0.22121202      -0.46685629      -0.20981047
Pb       8.99040622      11.02760655      13.32492859      -0.34880452       0.30183622      -0.15270323       2.33026723       1.58469751       0.87607721
Pb      11.06819371       7.90068340      15.89965169      -0.17130781       0.11354766       0.10440973       0.61077039      -1.70188010       0.07019827
Pb       2.09231759       6.17232526      18.27937928       0.14138404       0.03509147      -0.12806303       1.35575650       0.11645155      -1.10542675
Pb      17.75572133      13.31751569       1.19381281       0.24546260      -0.17557486       0.11489196       1.16248130       0.91172731       0.25590942
Pb       8.94019375      11.41838529      18.00263766       0.23981368      -0.36330780       0.42426877      -1.00517506       2.50153422      -2.24447491
Pb      10.97114189       7.67106207       1.51873180       0.12558547       0.18500853      -0.44471511      -0.56466262      -0.13201488       0.47544228
I        1.08987833       8.15096137      15.96351882       0.01072247      -0.16640606      -0.19878182       0.56673025       0.48580761       0.80036457
I        1.03858724      11.54999307      13.48450313       0.01305011      -0.08267655      -0.22768930       0.40713931       1.12196527       0.95801096
I        9.99122860      13.05274589      15.55812248       0.22244945       0.22009869       0.27539550       2.00654383       0.17386878      -0.56629864
I       10.03274298       5.88417275      13.46227818      -0.05992656       0.04282879      -0.06077539       0.50602347      -1.12809492       0.12690828
I       17.09045132       4.85575752      13.41965700      -0.33696290      -0.20944255       0.07690906       1.00798604       1.14138964       1.26902843
I        3.10129914      14.68576103      15.77389141       0.14888369      -0.15132264       0.23815037       0.61665635       0.69984062      -0.73047365
I       12.12854785       9.84432788      13.39657137      -0.03282724      -0.09718658      -0.04252833      -0.79158099      -0.55289872      -0.34805208
I        7.93871706       9.17943218      15.88402065      -0.00300509       0.07786073      -0.05639949      -1.02269622      -1.16333806      -0.78975986
I        4.90205680       7.82675130      13.47134914      -0.10256548      -0.29985529      -0.03950096       1.78864184      -0.10990699       1.17117529
I       15.25830849      11.65863043      15.74244043      -0.22211837      -0.18985982       0.02974494      -1.57594426       1.95797558       1.31386401
I        6.37132893      12.91394707      13.33765961       0.06859656      -0.28600558       0.08753815       0.30139402      -0.13778749      -0.74392587
I       13.70292931       6.47284346      15.87726649       0.29773326      -0.21780635      -0.16672889       0.40282122      -0.35127964       0.71881982
I        1.03815823       7.93414068       1.47740275      -0.17942890       0.27132315      -0.25280522      -1.97580165       1.27956973       1.73239682
I        1.15441256      11.54756861      18.41236026      -0.03363933      -0.07069397      -0.07692993      -0.09845795       0.87331077       0.27670659
I        9.96403276      13.00564524       1.36940685       0.10470125       0.07421908      -0.07521090      -0.24234427       0.36364510       1.70816901
I        9.79777338       6.03413384      18.22581612       0.16632085      -0.02332420       0.05133484      -1.65096240       0.44124446       1.55422394
I       16.84363060       4.69985656      18.10723254       0.00987003       0.05700208       0.02629979       0.55382124      -1.13945284       0.44194265
I        3.12579975      14.59596518       1.33795438      -0.08806642       0.05775170       0.09282971       1.87721576       0.74438130       0.06802482
I       12.13887206       9.81354774      18.21930361      -0.30162526      -0.04056232       0.14797857       0.52653707       0.88244870       3.80659011
I        7.93990032       9.27290873       1.25619192       0.10604568      -0.14559866      -0.22730632      -0.85129747       1.96039467       1.41043568
I        4.84320432       7.60398394      18.22878641      -0.04826918      -0.01318359       0.01800136      -2.22843544       0.58355459      -1.33958592
I       15.19618882      11.64386801       0.97060030      -0.18273970      -0.00674802       0.27624716       1.64399952       2.04343884       0.21279545
I        6.23806386      12.78717839      18.28858079      -0.05299656       0.12413712      -0.11651738      -0.63210940       2.23294654       1.90694957
I       13.70528416       6.05392260       1.15264429      -0.09947632       0.31167575       0.22591780       1.04652657       3.23729445      -1.39756244
Cs       6.96203440      15.79477602       6.07690401      -0.10820869      -0.00637266       0.02911093      -0.31990743       0.37126845       1.51951022
Cs      13.15211191       3.28510828       3.81616296      -0.07510414       0.05401786      -0.17870595      -1.54650081      -0.27606326       0.05359562
Cs       3.99340097       0.13753506       6.26864935       0.00408208       0.04013354      -0.10487514       0.22001223       1.22823676       2.88406325
Cs      15.99750931      19.09816195       3.64699639      -0.07744596       0.02114382      -0.06302457      -0.00003266       0.32829319      -0.19931717
Cs       6.87398230      15.81580883      10.88456806       0.07377710       0.04469410       0.15628607      -0.27009049      -1.28694830       0.00267646
Cs      12.91016095       3.43433446       8.46601757      -0.11448672      -0.11600275      -0.00740191       0.56806963       1.46448598       1.38625640
Cs       4.02092130       0.11403938      11.09852146       0.01852515      -0.02139250       0.00396714      -1.21174917      -1.54780242      -0.55804746
Cs      15.89044656      19.03851113       8.49983136       0.11695678       0.07294386       0.03092587      -0.71927269       0.57819198       1.57991511
Pb       2.23000383      16.59689792       3.75287647       0.31133945       0.33897654       0.20241662      -0.30304047       2.16251408      -2.98695426
Pb      17.75953340       2.53356662       6.11655424       0.21370545       0.23903209       0.00803854      -0.22121202      -0.46685629      -0.20981047
Pb       8.82223716       0.51334700       3.67615358      -0.34880452       0.30183622      -0.15270323       2.33026723       1.58469751       0.87607721
Pb      11.12582063      18.39597901       6.23556978      -0.17130781       0.11354766       0.10440973       0.61077039      -1.70188010       0.07019827
Pb       2.14994451      16.66762087       8.61529737       0.14138404       0.03509147      -0.12806303       1.35575650       0.11645155      -1.10542675
Pb      17.69809441       2.82222008      10.85789472       0.24546260      -0.17557486       0.11489196       1.16248130       0.91172731       0.25590942
Pb       8.77202469       0.90412574       8.35386265       0.23981368      -0.36330780       0.42426877      -1.00517506       2.50153422      -2.24447491
Pb      11.13931095      18.18532162      11.16750681       0.12558547       0.18500853      -0.44471511      -0.56466262      -0.13201488       0.47544228
I        1.14750525      18.64625698       6.29943691       0.01072247      -0.16640606      -0.19878182       0.56673025       0.48580761       0.80036457
I        0.87041818       1.03573352       3.83572812       0.01305011      -0.08267655      -0.22768930       0.40713931       1.12196527       0.95801096
I        9.82305954       2.53848634       5.90934747       0.22244945       0.22009869       0.27539550       2.00654383       0.17386878      -0.56629864
I       10.09036990      16.37946836       3.79819627      -0.05992656       0.04282879      -0.06077539       0.50602347      -1.12809492       0.12690828
I       17.14807824      15.35105313       3.75557509      -0.33696290      -0.20944255       0.07690906       1.00798604       1.14138964       1.26902843
I        2.93313008       4.17150148       6.12511640       0.14888369      -0.15132264       0.23815037       0.61665635       0.69984062      -0.73047365
I       12.18617477      20.33962349       3.73248946      -0.03282724      -0.09718658      -0.04252833      -0.79158099      -0.55289872      -0.34805208
I        7.99634398      19.67472779       6.21993874      -0.00300509       0.07786073      -0.05639949      -1.02269622      -1.16333806      -0.78975986
I        4.95968372      18.32204691       3.80726723      -0.10256548      -0.29985529      -0.03950096       1.78864184      -0.10990699       1.17117529
I       15.09013943       1.14437088       6.09366542      -0.22211837      -0.18985982       0.02974494      -1.57594426       1.95797558       1.31386401
I        6.20315987       2.39968752       3.68888460       0.06859656      -0.28600558       0.08753815       0.30139402      -0.13778749      -0.74392587
I       13.76055623      16.96813907       6.21318458       0.29773326      -0.21780635      -0.16672889       0.40282122      -0.35127964       0.71881982
I        1.20632729      18.44840023      11.12617776      -0.17942890       0.27132315      -0.25280522      -1.97580165       1.27956973       1.73239682
I        0.98624350       1.03330906       8.76358525      -0.03363933      -0.07069397      -0.07692993      -0.09845795       0.87331077       0.27670659
I        9.90640584       2.51034963      11.03348876       0.10470125       0.07421908      -0.07521090      -0.24234427       0.36364510       1.70816901
I        9.85540030      16.52942945       8.56173421       0.16632085      -0.02332420       0.05133484      -1.65096240       0.44124446       1.55422394
I       16.90125752      15.19515217       8.44315063       0.00987003       0.05700208       0.02629979       0.55382124      -1.13945284       0.44194265
I        3.06817283       4.10066957      11.00203629      -0.08806642       0.05775170       0.09282971       1.87721576       0.74438130       0.06802482
I       12.19649898      20.30884335       8.55522170      -0.30162526      -0.04056232       0.14797857       0.52653707       0.88244870       3.80659011
I        8.10806938      19.78716828      10.90496693       0.10604568      -0.14559866      -0.22730632      -0.85129747       1.96039467       1.41043568
I        4.90083124      18.09927955       8.56470450      -0.04826918      -0.01318359       0.01800136      -2.22843544       0.58355459      -1.33958592
I       15.13856190       1.14857240      10.63468221      -0.18273970      -0.00674802       0.27624716       1.64399952       2.04343884       0.21279545
I        6.06989480       2.27291884       8.63980578      -0.05299656       0.12413712      -0.11651738      -0.63210940       2.23294654       1.90694957
I       13.87345322      16.56818215      10.80141930      -0.09947632       0.31167575       0.22591780       1.04652657       3.23729445      -1.39756244
Cs       7.01730547      15.80425799      15.73333247      -0.10820869      -0.00637266       0.02911093      -0.31990743       0.37126845       1.51951022
Cs      13.20738297       3.29459025      13.47259142      -0.07510414       0.05401786      -0.17870595      -1.54650081      -0.27606326       0.05359562
Cs       4.04867203       0.14701703      15.92507781       0.00408208       0.04013354      -0.10487514       0.22001223       1.22823676       2.88406325
Cs      16.05278038      19.10764392      13.30342485      -0.07744596       0.02114382      -0.06302457      -0.00003266       0.32829319      -0.19931717
Cs       6.81871124      15.80632686       1.22813960       0.07377710       0.04469410       0.15628607      -0.27009049      -1.28694830       0.00267646
Cs      12.96543201       3.44381643      18.12244603      -0.11448672      -0.11600275      -0.00740191       0.56806963       1.46448598       1.38625640
Cs       3.96565023       0.10455741       1.44209300       0.01852515      -0.02139250       0.00396714      -1.21174917      -1.54780242      -0.55804746
Cs      15.94571763      19.04799310      18.15625982       0.11695678       0.07294386       0.03092587      -0.71927269       0.57819198       1.57991511
Pb       2.28527490      16.60637989      13.40930493       0.31133945       0.33897654       0.20241662      -0.30304047       2.16251408      -2.98695426
Pb      17.81480446       2.54304859      15.77298270       0.21370545       0.23903209       0.00803854      -0.22121202      -0.46685629      -0.20981047
Pb       8.87750822       0.52282897      13.33258204      -0.34880452       0.30183622      -0.15270323       2.33026723       1.58469751       0.87607721
Pb      11.18109170      18.40546098      15.89199824      -0.17130781       0.11354766       0.10440973       0.61077039      -1.70188010       0.07019827
Pb       2.20521558      16.67710284      18.27172583       0.14138404       0.03509147      -0.12806303       1.35575650       0.11645155      -1.10542675
Pb      17.64282334       2.81273811       1.20146626       0.24546260      -0.17557486       0.11489196       1.16248130       0.91172731       0.25590942
Pb       8.82729575       0.91360771      18.01029111       0.23981368      -0.36330780       0.42426877      -1.00517506       2.50153422      -2.24447491
Pb      11.08403989      18.17583965       1.51107835       0.12558547       0.18500853      -0.44471511      -0.56466262      -0.13201488       0.47544228
I        1.20277632      18.65573895      15.95586537       0.01072247      -0.16640606      -0.19878182       0.56673025       0.48580761       0.80036457
I        0.92568924       1.04521549      13.49215658       0.01305011      -0.08267655      -0.22768930       0.40713931       1.12196527       0.95801096
I        9.87833060       2.54796831      15.56577593       0.22244945       0.22009869       0.27539550       2.00654383       0.17386878      -0.56629864
I       10.14564097      16.38895033      13.45462473      -0.05992656       0.04282879      -0.06077539       0.50602347      -1.12809492       0.12690828
I       17.20334931      15.36053510      13.41200355      -0.33696290      -0.20944255       0.07690906       1.00798604       1.14138964       1.26902843
I        2.98840114       4.18098345      15.78154486       0.14888369      -0.15132264       0.23815037       0.61665635       0.69984062      -0.73047365
I       12.24144584      20.34910546      13.38891792      -0.03282724      -0.09718658      -0.04252833      -0.79158099      -0.55289872      -0.34805208
I        8.05161505      19.68420976      15.87636720      -0.00300509       0.07786073      -0.05639949      -1.02269622      -1.16333806      -0.78975986
I        5.01495479      18.33152888      13.46369569      -0.10256548      -0.29985529      -0.03950096       1.78864184      -0.10990699       1.17117529
I       15.14541049       1.15385285      15.75009388      -0.22211837      -0.18985982       0.02974494      -1.57594426       1.95797558       1.31386401
I        6.25843093       2.40916949      13.34531306       0.06859656      -0.28600558       0.08753815       0.30139402      -0.13778749      -0.74392587
I       13.81582730      16.97762104      15.86961304       0.29773326      -0.21780635      -0.16672889       0.40282122      -0.35127964       0.71881982
I        1.15105623      18.43891826       1.46974930      -0.17942890       0.27132315      -0.25280522      -1.97580165       1.27956973       1.73239682
I        1.04151456       1.04279103      18.42001371      -0.03363933      -0.07069397      -0.07692993      -0.09845795       0.87331077       0.27670659
I        9.85113477       2.50086766       1.37706030       0.10470125       0.07421908      -0.07521090      -0.24234427       0.36364510       1.70816901
I        9.91067137      16.53891142      18.21816267       0.16632085      -0.02332420       0.05133484      -1.65096240       0.44124446       1.55422394
I       16.95652859      15.20463414      18.09957909       0.00987003       0.05700208       0.02629979       0.55382124      -1.13945284       0.44194265
I        3.01290176       4.09118760       1.34560783      -0.08806642       0.05775170       0.09282971       1.87721576       0.74438130       0.06802482
I       12.25177005      20.31832532      18.21165016      -0.30162526      -0.04056232       0.14797857       0.52653707       0.88244870       3.80659011
I        8.05279832      19.77768631       1.24853847       0.10604568      -0.14559866      -0.22730632      -0.85129747       1.96039467       1.41043568
I        4.95610231      18.10876152      18.22113296      -0.04826918      -0.01318359       0.01800136      -2.22843544       0.58355459      -1.33958592
I       15.08329083       1.13909043       0.97825375      -0.18273970      -0.00674802       0.27624716       1.64399952       2.04343884       0.21279545
I        6.12516586       2.28240081      18.29623424      -0.05299656       0.12413712      -0.11651738      -0.63210940       2.23294654       1.90694957
I       13.81818216      16.55870018       1.14499084      -0.09947632       0.31167575       0.22591780       1.04652657       3.23729445      -1.39756244
Cs      24.74310662       5.10079921       5.96347189      -0.10820869      -0.00637266       0.02911093      -0.31990743       0.37126845       1.51951022
Cs      31.15898011      13.60068663       3.68742394      -0.07510414       0.05401786      -0.17870595      -1.54650081      -0.27606326       0.05359562
Cs      22.00026917      10.45311341       6.13991033       0.00408208       0.04013354      -0.10487514       0.22001223       1.22823676       2.88406325
Cs      33.77858153       8.40418514       3.53356427      -0.07744596       0.02114382      -0.06302457      -0.00003266       0.32829319      -0.19931717
Cs      24.65505452       5.12183202      10.77113594       0.07377710       0.04469410       0.15628607      -0.27009049      -1.28694830       0.00267646
Cs      30.91702915      13.74991281       8.33727855      -0.11448672      -0.11600275      -0.00740191       0.56806963       1.46448598       1.38625640
Cs      22.02778950      10.42961773      10.96978244       0.01852515      -0.02139250       0.00396714      -1.21174917      -1.54780242      -0.55804746
Cs      33.67151878       8.34453432       8.38639924       0.11695678       0.07294386       0.03092587      -0.71927269       0.57819198       1.57991511
Pb      20.01107605       5.90292111       3.63944435       0.31133945       0.33897654       0.20241662      -0.30304047       2.16251408      -2.98695426
Pb      35.76640160      12.84914497       5.98781522       0.21370545       0.23903209       0.00803854      -0.22121202      -0.46685629      -0.20981047
Pb      26.82910536      10.82892535       3.54741456      -0.34880452       0.30183622      -0.15270323       2.33026723       1.58469751       0.87607721
Pb      28.90689285       7.70200220       6.12213766      -0.17130781       0.11354766       0.10440973       0.61077039      -1.70188010       0.07019827
Pb      19.93101673       5.97364406       8.50186525       0.14138404       0.03509147      -0.12806303       1.35575650       0.11645155      -1.10542675
Pb      35.70496261      13.13779843      10.72915570       0.24546260      -0.17557486       0.11489196       1.16248130       0.91172731       0.25590942
Pb      26.77889289      11.21970409       8.22512363       0.23981368      -0.36330780       0.42426877      -1.00517506       2.50153422      -2.24447491
Pb      28.92038317       7.49134481      11.05407469       0.12558547       0.18500853      -0.44471511      -0.56466262      -0.13201488       0.47544228
I       18.92857747       7.95228017       6.18600479       0.01072247      -0.16640606      -0.19878182       0.56673025       0.48580761       0.80036457
I       18.87728638      11.35131187       3.70698910       0.01305011      -0.08267655      -0.22768930       0.40713931       1.12196527       0.95801096
I       27.82992774      12.85406469       5.78060845       0.22244945       0.22009869       0.27539550       2.00654383       0.17386878      -0.56629864
I       27.87144212       5.68549155       3.68476415      -0.05992656       0.04282879      -0.06077539       0.50602347      -1.12809492       0.12690828
I       34.92915046       4.65707632       3.64214297      -0.33696290      -0.20944255       0.07690906       1.00798604       1.14138964       1.26902843
I       20.93999828      14.48707983       5.99637738       0.14888369      -0.15132264       0.23815037       0.61665635       0.69984062      -0.73047365
I       29.96724699       9.64564668       3.61905734      -0.03282724      -0.09718658      -0.04252833      -0.79158099      -0.55289872      -0.34805208
I       25.77741620       8.98075098       6.10650662      -0.00300509       0.07786073      -0.05639949      -1.02269622      -1.16333806      -0.78975986
I       22.74075594       7.62807010       3.69383511      -0.10256548      -0.29985529      -0.03950096       1.78864184      -0.10990699       1.17117529
I       33.09700763      11.45994923       5.96492640      -0.22211837      -0.18985982       0.02974494      -1.57594426       1.95797558       1.31386401
I       24.21002807      12.71526587       3.56014558       0.06859656      -0.28600558       0.08753815       0.30139402      -0.13778749      -0.74392587
I       31.54162845       6.27416226       6.09975246       0.29773326      -0.21780635      -0.16672889       0.40282122      -0.35127964       0.71881982
I       18.98739951       7.75442342      11.01274564      -0.17942890       0.27132315      -0.25280522      -1.97580165       1.27956973       1.73239682
I       18.99311170      11.34888741       8.63484623      -0.03363933      -0.07069397      -0.07692993      -0.09845795       0.87331077       0.27670659