320
Lattice="35.78794042575779 -0.37839846603646177 -0.24217113649280456 0.2257959835333163 21.00955516298944 -0.015306901360210465 0.11054213265190213 0.01896394099226511 19.312856914076352" Properties=species:S:1:pos:R:3:forces:R:3:momenta:R:3 energy=-985.1207961834823 stress="0.0 0.0 0.0 0.0 0.0 0.0 0.0 0.0 0.0" pbc="T T T"
Cs       7.13866372       3.69159161       5.99490133       0.15013505      -0.04552861       0.03414260       0.91705391      -0.98620823      -1.95382258
Cs      13.68970537      12.03101322       3.99602803      -0.06005780       0.21780696      -0.32308490      -0.21194389       1.76508949       1.82983981
Cs       4.73864390       9.18848565       6.04710129      -0.13958610      -0.11654683       0.11128516       0.70127149      -1.45620827       0.04560111
Cs      15.99894352       6.64277344       3.52475411       0.27844458       0.15696327       0.16952936       0.31339230      -0.99521411       1.12510225
Cs       7.30436877       3.44229367      10.94575851      -0.12984435       0.10650997       0.12504759       0.69582381       1.16275305       0.23852012
Cs      13.52366154      12.41864632       8.21565685       0.13832025      -0.05551540       0.32684944       2.14819517       2.39806315       0.08480306
Cs       4.43705027       8.84083746      10.97138610       0.14093884       0.11870185       0.14608691      -3.43866977      -1.89501058       3.07183714
Cs      16.44065148       6.85151545       8.26186402      -0.01693650       0.08923562       0.18124135      -0.11007382       0.71541308       2.62856121
Pb       2.56264208       4.76935058       3.61396432      -0.13104074      -0.15159145      -0.02969254       0.81908554      -0.01002772      -2.25140885
Pb      18.41045625      11.54233838       5.91170768       0.50535232      -0.18089832       0.27131100       1.83143733      -0.11516630       3.08445286
Pb       9.39573002       9.68062938       3.62022960       0.11558367       0.29452220       0.19411308       1.71152268       1.03478548       4.48513387
Pb      11.47153654       6.12199895       6.46621052      -0.21881864      -0.03393784      -0.15849112      -0.02258606       1.80067133      -0.19666409
Pb       2.59846521       4.73267884       8.51736290      -0.31308338      -0.04075469      -0.15462636       0.11634379       2.28037976      -3.48301564
Pb      18.26821156      11.61102435      10.77642364       0.04358796      -0.56312755      -0.13403976      -3.50851330       2.02747802       0.67275143
Pb       9.27065760       9.24496643       8.27306197      -0.06406310       0.60568633       0.25323020      -1.87651792      -1.22972377       2.49111115
Pb      11.40101528       6.11791668      11.25561681       0.28183284      -0.12871069      -0.08463380      -3.76107085       0.64529325       0.11229764
I        1.37692465       6.38009360       6.16504783       0.05788487       0.34946994      -0.17429539       2.41539840       1.14595838      -2.90551494
I        1.59080455       9.72654714       3.78024270      -0.05801963       0.27167865      -0.04753389       1.95173584      -0.08025544       0.62862402
I       10.63857703      11.57834439       6.23311931      -0.40771202      -0.47466528      -0.11304999       2.47229685       2.66739233       1.08704788
I       10.56732911       4.55885561       3.65395208      -0.23329747      -0.19927327       0.14536191       0.85946047      -0.01362359       0.89117955
I       17.35588877       2.75648346       3.73923610      -0.20074511       0.22219772       0.01504056       1.31561735       0.69357983       0.79140455
I        3.68889518      13.16468565       5.96241326      -0.19881644      -0.17706628       0.14353135       0.12992089       0.41310575       0.17595228
I       12.33074086       8.33748681       4.10299621       0.34102393      -0.02030770       0.07268944      -1.77306414      -0.60221964      -2.45278234
I        8.26897812       7.44874720       5.77654082       0.12506878       0.06988313       0.12364553      -0.76874086       0.08931334      -1.91924233
I        5.33274956       6.15203402       3.68938487       0.07442259       0.02802561      -0.06934971      -2.40627299       0.11882144       3.89122023
I       15.88900877       9.95120495       5.98258032      -0.43392045      -0.22309872       0.12620128      -2.48021963       2.27997757      -0.33395579
I        6.77028278      11.40928713       3.61968716      -0.18437230      -0.24737488       0.01068265       2.54712848      -2.33469068       0.19823007
I       14.10079649       4.57577202       6.26484562       0.05320103       0.01120456      -0.13470205       1.14871446       2.89281093      -0.58445511
I        1.24718176       6.84797063      10.88105866       0.29862892      -0.49576871      -0.16199232      -0.21655017      -1.85579520      -1.88018023
I        1.61481967      10.15614287       8.51729800       0.08432393      -0.14279781       0.14290859      -1.82721404      -1.06027491      -2.20352387
I       10.47111642      11.37930614      10.51686293       0.04889033       0.01468118       0.09666020       0.86379449      -0.86576158       0.58320865
I       10.00409629       4.26246470       8.76508825       0.33530264       0.18459255      -0.13820488       1.24716383       0.17622847       0.86211609
I       17.13573362       2.81201060       8.23373492       0.22141425       0.20204983       0.09026041       1.07343624       0.35058979      -1.85430845
I        3.73319748      13.10747676      11.15832483      -0.29192829      -0.01888362      -0.29004998       2.34224812      -3.33080735       1.53318034
I       12.33785626       8.09111926       8.81583825       0.18211078       0.04564484      -0.15412013      -4.33276026       0.32252852       0.87483238
I        8.44128265       7.48544428      10.92518539       0.01484415       0.10508784       0.19235778      -0.82469291      -2.21123995      -1.64439813
I        5.40645443       6.07851166       8.65030452      -0.15844651      -0.10650044      -0.13579466      -1.22508857       0.09747232       0.99409625
I       15.69770648       9.75353419      10.65901077      -0.18127954       0.31844732       0.01542778       0.51226056      -0.05879071      -2.10789960
I        6.58767882      10.99241905       8.87345588       0.20790642       0.05976651      -0.26261573       0.22333618      -0.29308355       0.01002833
I       14.38016072       4.80394138      10.97086426      -0.40809965       0.12350184       0.02454441      -0.17935665       1.27285493      -2.65734603
Cs       7.35651672       4.13975148      15.85648461       0.05829215      -0.34682571      -0.00530468      -1.52595767      -1.59619020      -0.70941815
Cs      13.58981655      12.37758199      13.02022154       0.04659732       0.01956038       0.04766895      -1.32893949      -1.42762411       1.12887241
Cs       4.53240807       8.72395989      15.96346851       0.16377107       0.24691629      -0.20829984      -3.08299382       0.83469743      -1.35171009
Cs      16.27990349       7.08431813      13.42596590       0.15357535       0.01540720      -0.18543516      -2.18376285       1.54871181      -0.38436639
Cs       7.32979717       3.80143849       1.27913996       0.00070264      -0.07123129      -0.01474660      -0.43275155      -2.98326357       1.27125993
Cs      13.83276320      12.39048755      18.07866236      -0.17936031       0.01366581       0.08063845       1.04205107       0.55721738      -0.47662056
Cs       4.56749105       9.01031500       1.24119416       0.03844369       0.05211490      -0.01148900       1.68816255       0.40974027      -2.51375465
Cs      16.45437113       7.10047106      18.06305745       0.04853743       0.01241879      -0.00444122       0.56456514      -2.48628129      -2.96294349
Pb       2.47010439       4.68586557      13.05730714      -0.04231734      -0.23321133       0.23076652       1.32823389      -0.68571227       0.32475270
Pb      18.12813766      11.54685839      15.69101218       0.38057622      -0.17562879      -0.13748028      -0.20189188       0.32984192       0.03818550
Pb       9.40163759       9.76902517      13.22822803      -0.02091852       0.12231472      -0.13492984      -2.34380384       2.65934628      -3.11513154
Pb      11.63605569       6.38512447      15.90719899      -0.34337996       0.12030305       0.09711590       1.91459704       0.23515709       2.26592359
Pb       2.43989463       4.50281788      18.05288957      -0.14697458      -0.31349432       0.06704348      -0.70472441       5.66964478      -2.60931422
Pb      18.17685928      11.57406430       1.43873611       0.10515951      -0.19209729      -0.34084887      -1.39932919       0.04389260      -1.02196761
Pb       9.61407389       9.65963495      18.16536445      -0.19957611       0.27953765      -0.13153710      -0.28165517      -1.75745053       0.25717829
Pb      11.77648029       6.50323698       1.46995197      -0.45845812      -0.11522458      -0.06964782       1.33188538       0.87583200       2.07487051
I        1.33608192       6.25356228      15.64933228       0.04293630       0.19700120       0.12632946       2.71383109      -2.17465638       0.47747785
I        1.73634087       9.89842085      13.59414375      -0.14649511       0.03337272      -0.23140247      -0.99689645       1.77590305       2.05414368
I       10.79546842      11.41436733      15.71819003      -0.08309141       0.14131994      -0.08718061       0.51884869      -1.52909882       0.05369531
I       10.30208326       4.36485082      13.73402625       0.10707681       0.14469788      -0.24212181      -0.79062982       2.18359105       2.59898237
I       17.17730346       3.03356873      13.34152986       0.18393199       0.06067606      -0.04972654       0.99829098       0.12682989       2.00308837
I        3.57078589      13.20602829      15.76470709       0.17607379      -0.19355375       0.06517842       0.65032745       0.24256562      -2.74561189
I       12.38062700       8.31180638      13.52136168       0.18988415      -0.06024667      -0.40279500      -2.30206757      -0.62378423       1.16128073
I        8.50832018       7.86120611      15.54339448      -0.03440973      -0.14844620       0.36752052      -0.78105829      -1.81741574      -1.13844231
I        5.32397383       5.95582660      13.47613594      -0.09843984       0.03843611      -0.25536614      -0.97799915      -0.47696641       1.45403523
I       15.46407845      10.00239638      15.66371659       0.03893572       0.11436042      -0.02663350       0.29785456      -1.48784211      -0.11499509
I        6.73346206      11.27484045      13.32292797      -0.19646034      -0.13865740       0.13190423      -2.96915818       0.60642843       3.04471349
I       14.29410884       5.07199565      15.72424759       0.15871124      -0.35486822       0.02540678       1.05551311       0.01007676      -0.84377358
I        1.29320680       6.57469164       1.16338949       0.24009778      -0.22221932      -0.20405510      -0.35945487      -1.12110789      -0.37675311
I        1.76930425      10.10355038      18.15060644      -0.00456019      -0.27924414       0.49932063      -0.76844804      -0.25344774      -0.13281768
I       10.63059744      11.52016977       1.30690997      -0.05469008      -0.02370529      -0.18930261      -0.64398086       0.57737756       0.21093002
I       10.58134494       4.71719547      18.48810533      -0.15164410      -0.14536726      -0.21390859       1.48381804       0.59119057      -1.84818757
I       17.28621510       3.07915002      17.92541732      -0.06120490      -0.21162694       0.22712670       1.55628158      -0.29718477      -0.50606608
I        3.37396369      13.12373266       1.37470520       0.45617960      -0.14339006       0.02646872       0.41037965      -1.27261537       4.35279102
I       12.59591800       8.38973506      18.37348867       0.21979742       0.12393406      -0.28829293      -0.00193693      -1.77173874      -0.54534799
I        8.52278068       7.79555808       1.25809659      -0.12733019      -0.21679059       0.08830300      -0.48269342      -1.52591167       2.46400063
I        5.17153558       5.81363840      18.16746295       0.28277335       0.29866565       0.16323567      -2.68728325      -0.87763986       1.68475941
I       15.60888265       9.79235315       1.22814755      -0.07783783       0.24632587       0.11566140       0.12735912       0.59225851      -1.23396151
I        6.82174647      11.14461310      17.95599690       0.02738558       0.08148672       0.17923602      -1.51764183      -1.98238195       0.33650649
I       14.23693284       4.74260474       1.07289480       0.23899024      -0.09351940       0.07249441      -1.29735175       1.15818787      -1.92010535
Cs       7.24005948      13.97442976       6.14952449       0.17242315       0.11970915       0.05607635      -2.08372952       2.03091760      -2.91737373
Cs      13.27093221       1.81349714       3.54631283       0.24389582      -0.08443768       0.08631113       0.54295953      -0.46851553      -1.99634864
Cs       4.58954227      19.30255809       5.99025223       0.05304566       0.17093854      -0.00796076      -2.51769161      -0.35119259      -1.56233447
Cs      16.33896760      17.73795641       3.37814391       0.05625474      -0.22106807       0.14973239      -1.75394997       2.45432013      -2.46111987
Cs       7.55813911      14.23378097      11.14944657       0.06177774      -0.02481765      -0.28077374       0.27334380       1.33049293      -1.99960011
Cs      13.37021407       1.85677984       8.79562944      -0.10478666      -0.07075064      -0.23083451       1.67559435       0.13934100       1.30780406
Cs       4.78295987      19.40188833      10.92288759      -0.04759787      -0.01039384       0.04124479      -0.03386487      -3.12838121      -1.05854055
Cs      16.58292781      17.50696743       8.23832144      -0.00909087       0.24337116       0.21620140      -0.18593766       0.03063003       0.37230321
Pb       2.70178248      15.18613042       3.74428788      -0.17596988       0.25333182       0.11917512       3.70270607      -0.33245131       1.11084750
Pb      18.18204861       0.68724128       6.14329839      -0.24113411      -0.06107537      -0.23507102       2.90389310      -3.49792487      -0.94325007
Pb       9.49063564      20.38110390       3.53990081       0.13758766      -0.62946168      -0.27107534       0.02154266      -0.13920618      -0.45002249
Pb      11.56365589      16.76090439       5.90132820      -0.00281970      -0.07357595       0.09854485      -0.83371005       0.64604122       2.62620341
Pb       2.66174832      14.97195906       8.54698446       0.11297936       0.21974636      -0.08684743       0.81743714      -0.87373786       0.44933745
Pb      18.08812344       1.10940857      10.94234520      -0.08666277      -0.21729116      -0.10014651      -1.45536409      -0.77929852       1.79870785
Pb       9.50063778      20.28805707       8.55085726       0.10315804      -0.14909502       0.00385478      -1.27126670      -0.76667458      -0.01818366
Pb      11.70718121      16.88938772      10.72208731      -0.07649032       0.05659617       0.23823927       1.06882445       3.21013580       1.70659591
I        1.28552113      16.94149511       6.10293103       0.31535948      -0.23135019       0.19518103       1.47826604       2.21255889       1.31285527
I        1.61372256      20.44116249       3.71891101       0.06567480      -0.29810227      -0.34133377       0.81256781       2.43348950      -0.42594075
I       10.42973120       0.94103898       5.79237289      -0.02634966       0.23914037       0.48279079       0.78183662       0.26537225       0.39041477
I       10.42544802      14.67765938       3.60409564       0.06291961       0.28360084       0.04472569      -1.01060763      -2.49247088       1.70781045
I       17.43479911      13.49958706       3.78165010      -0.12290328       0.29160482      -0.12772547       0.74905605       0.10216475       2.50217281
I        3.47091322       2.58238612       5.93550378       0.00992020       0.29757811       0.26215288       0.30114000      -0.18479125      -1.20300178
I       12.61483658      18.57864807       3.68303325      -0.12038247       0.43386629      -0.29816758       1.41153833       0.85215529      -0.27673951
I        8.68780882      18.36632753       6.11804504      -0.19750497       0.02762236      -0.22820976       0.46308987       2.28970626       0.66849038
I        5.46412699      16.74136756       3.63282752      -0.23665091      -0.31592333      -0.00093778      -2.19775306       3.25227571      -5.13470195
I       15.47314525      20.38407110       6.14232106       0.40603565       0.30727920      -0.07666063      -1.36556565      -1.06910365       2.22428540
I        6.60367328       0.70053268       3.51188481      -0.23035158       0.09118516       0.05716370       5.32135215       0.16378922      -1.69247331
I       14.37158788      15.42785927       6.11704405       0.07098187      -0.11680648      -0.20253547       2.68529649       1.33389130      -0.63983665
I        1.24689684      16.67376414      10.89933763       0.23729296       0.26856483      -0.13851226       0.47221141       3.84995904       0.03665979
I        1.71300357      20.33744016       8.37273726       0.09651762      -0.28521152       0.04405327      -0.10576163       1.29460064       0.30016564
I       10.28301485       1.09638524      11.18667288       0.01465820      -0.05348403      -0.21346796      -0.90069964       0.44170162       0.63794136
I       10.40660309      14.98918999       8.22368013       0.08376033       0.05272246       0.64951239      -0.34704606      -1.36031950       1.51600232
I       17.42913656      13.60263633       8.31480464      -0.07117634      -0.11415737      -0.05335579       0.12080146       0.51294278       0.85914770
I        3.31032873       2.67617213      10.61254001       0.30482715      -0.30550564       0.42211747      -0.32723690       0.31805650      -0.92580241
I       12.52563688      18.78821639       8.37093178       0.01817378       0.12799630      -0.08779429      -0.28274870      -0.21784869      -0.60813756
I        8.58161828      18.19838108      11.00349650      -0.01238109       0.10733449      -0.31347098      -1.97161255      -0.90956416       0.01680693
I        5.48476114      16.50747924       8.35363713      -0.32978005      -0.17400682       0.21378500       3.52755000       1.03362508      -0.12182530
I       15.46231982      20.72796834      10.90255748       0.41095384      -0.20379743      -0.04012847      -1.10014944       0.15988915       2.12004106
I        6.52311673       0.62437755       8.34168141      -0.12400336       0.08113212       0.06503807       0.42390191       2.48852544       2.49522802
I       14.53119242      15.67212920      10.84037873      -0.09792046      -0.38349526      -0.18671768      -2.47821323      -0.94868932      -0.32478713
Cs       7.70432998      14.27274519      15.65903874      -0.04417104      -0.15521621       0.08174416      -0.89591951       1.90169815      -2.18782201
Cs      13.24870942       1.89057654      13.39715112       0.21758441      -0.03001567       0.08951139       1.13670417       2.70814100       1.79091329
Cs       4.73976370      19.28494587      15.90425157       0.05661130       0.13467243      -0.16467030      -0.47780228       0.76400851       1.06909043
Cs      16.24633594      17.60251373      13.34096915       0.19528257       0.08475374      -0.13398284       2.80821660       1.90465098      -1.45392195
Cs       7.26183214      14.09430555       1.38996478       0.18947147       0.04269692      -0.26403553       1.37290153       0.78539864      -0.35597898
Cs      13.45107218       1.93396086      18.00726768       0.13713423      -0.20457629      -0.04483574       2.99887520      -0.15407845       2.77369150
Cs       4.75954274      19.48551266       1.01678259      -0.10038438       0.04493685       0.11562122       5.03671328      -0.93622680       1.45080775
Cs      16.80041368      17.37361345      17.89752606      -0.27974681       0.14669567       0.24997414      -1.70325065      -0.48653186      -0.32355190
Pb       2.56590345      15.07655984      13.45781642       0.18617733      -0.05712626      -0.00336088      -0.74163943      -2.92001929       2.63027745
Pb      18.33837734       1.04660287      15.63851482      -0.03246527      -0.10230742      -0.12081441       1.29269309      -0.89266593      -4.85956162
Pb       9.37913410      20.22441503      13.47180543       0.13466696      -0.02135784       0.11754011       2.67961714      -3.81729679       1.17044768
Pb      11.59244012      16.98751446      15.74697706       0.38736813       0.06230441       0.04217055      -1.28586544       1.11199178      -0.48067178
Pb       2.65015512      15.13737864      18.28642610      -0.07014874      -0.17961840      -0.25598965      -4.64268422       0.56146493       2.59313077
Pb      18.08927552       0.93158203       1.13235605       0.20321064      -0.03762982       0.14817642      -1.63875212      -0.96507180       0.62483206
Pb       9.55689228      20.28729428      18.22217433       0.43131726      -0.23544612      -0.37492940       1.94744753       1.65595423       3.35960023
Pb      11.61086995      16.64091519       1.28555375      -0.00250022       0.21789662      -0.28426092       1.28922029       0.96738311       2.50159235
I        1.63119864      16.92965761      15.84308972      -0.19252766       0.17975651       0.02469964       0.61203673       0.73382730      -0.92218207
I        1.68424997      20.16965464      13.34831081       0.06583260      -0.04300226      -0.04442284      -2.43943251      -1.58833826      -1.20326038
I       10.38077786       1.20655981      15.67155858      -0.05995243      -0.09257840       0.26185022      -1.76369552      -1.76532491      -0.65079003
I       10.87683289      14.98192821      13.29140788      -0.29244990      -0.14828163      -0.15197870      -2.15286820      -0.48470238      -1.06414188
I       17.33748355      13.53672229      13.12079093      -0.08161752       0.13994275       0.13602530       0.03349332      -0.10977988       0.35089834
I        3.37812442       2.49502886      15.44739115       0.00288302       0.34099032       0.18599617      -1.39913423       1.33983671      -1.57876911
I       12.53983972      19.03633626      13.37659793      -0.14434937      -0.27629912      -0.36347349       1.06529348      -2.01314286       1.26238695
I        8.54276112      18.13339196      15.90673610      -0.10812249       0.08500833      -0.14224802      -0.11229816      -1.06411852      -1.57202237
I        5.43174464      16.35289148      13.37123385      -0.14501124       0.18438180      -0.00812154      -3.08834963      -0.50015280       0.32253128
I       15.90815852      20.46078244      15.68625830      -0.13620701       0.19775637       0.06960550       1.10099576      -1.69519316       2.13063998
I        6.51326919       0.82356048      13.58542659      -0.18410789      -0.08257115      -0.10091641      -0.15704844       0.70408854       0.52123869
I       14.35634503      15.47429322      15.80463386      -0.02628671      -0.19750479      -0.17414788       0.64700082       0.77143606       1.67914099
I        1.33570787      16.84157501       1.28163766       0.13140464       0.36520396       0.13729748       2.08987786      -0.29292805      -0.99793446
I        1.82879961      20.48440078      18.10075308       0.04044918      -0.23006025       0.09270649       1.45818300       1.28214144       1.40526836
I       10.51394288       1.13940274       0.97390238      -0.12447503      -0.00020662       0.53452962      -0.05954532      -0.56613394       0.55259006
I       10.56086376      15.10837860      18.04448342      -0.08459282      -0.38232027       0.18904232      -0.76040999       0.18312511      -1.46468497
I       17.41470619      13.64440146      18.09436765      -0.04208511      -0.26229833      -0.02327965      -1.27769053       1.40242163      -2.19916289
I        3.25725886       2.49423185       1.39620452       0.24423721       0.18369428      -0.26091723       0.36349188      -0.63008907       0.71639458
I       12.85523882      18.86247455      18.07350442      -0.38738930      -0.15627211       0.30791076       0.69799078       0.53629830      -0.60581790
I        8.43053852      18.14197736       0.97282249       0.24366724       0.15391378       0.38795328      -1.02432420      -0.59477841       2.35902864
I        5.43607697      16.30632435      18.20501674       0.19113492       0.16300615       0.00948908       1.19908677      -0.17774253       0.80215778
I       15.66868253      20.38429923       1.25883687      -0.14319452       0.15001603      -0.26921529      -3.13699064       0.86530903       0.95938542
I        6.77212734       0.86121826      17.94795007      -0.32578948       0.09486810       0.18361714      -0.92686894       1.13541441       1.30540705
I       14.23773575      15.04736424       1.32454441       0.10197280       0.14701454      -0.00529759       1.03326746      -0.06553022      -1.52354083
Cs      25.10840572       3.36024647       6.10383790       0.12428887       0.23045498      -0.00153333       1.37597958       0.77754173      -0.04184840
Cs      31.62675734      12.55948234       3.45231768      -0.07891026      -0.26147865       0.08092982       3.56213070      -2.33586290       2.22307352
Cs      22.43361715       8.87537708       5.91566323       0.14434454      -0.03157474       0.02490857       1.36993629       4.15399199       0.44520828
Cs      34.28949336       6.88477603       3.26999445      -0.06508647       0.23542459      -0.01573943       0.41578185      -0.66056596      -0.18470677
Cs      25.04813253       3.75682612      11.04366911       0.16986943      -0.11816987      -0.28201916      -0.17883082      -0.85309128       0.52402746
Cs      31.46161496      12.33723173       8.69835684      -0.03905949      -0.22064916      -0.36405629      -0.01308588      -0.14952882       0.94502970
Cs      22.23069764       8.97208134      10.75666470       0.16796106      -0.10481861       0.19521268      -3.64126951      -0.48046082      -2.46644769
Cs      34.40192183       7.08797238       8.15361319      -0.18101118      -0.09314487       0.03739491      -0.40992075       2.17509218       0.42066646
Pb      20.41524273       4.08911452       3.66841352      -0.14203736       0.16526740      -0.04354877      -3.97219309      -3.68115838      -0.67164294
Pb       0.48944812      11.63803188       6.11439487      -0.29786461       0.06977261      -0.15530906       1.24967622      -3.84746476      -1.06008824
Pb      27.45805298       9.58594804       3.74134646       0.33112804       0.04429930       0.02373620       0.18998586       0.33256359       2.43108561
Pb      29.93183982       6.24139000       5.84539882      -1.06689796       0.22169984      -0.14030400       1.07729641       0.43587429       4.46522090
Pb      20.36308029       4.35703086       8.31775410      -0.14817610       0.03859564       0.44260294      -2.04972878       2.67381458      -0.72035340
Pb       0.47599712      11.96091684      11.21318611      -0.02489997      -0.36091996      -0.24604509      -4.04225132       0.14681529      -1.54603565
Pb      27.12291963       9.62807851       8.45433499       0.19235976       0.02735689      -0.20833102      -0.57019234      -2.36154194      -1.04418899
Pb      29.55229265       6.31416187      10.63841179      -0.21589533      -0.26306483       0.08485470      -3.96899325      -0.66341695      -0.94996565
I       19.51356048       6.32314657       6.09826672      -0.21507213      -0.13437201      -0.37585440      -1.18136332       0.20143789       0.86696330
I       19.28733362       9.40674428       3.46114235       0.00783585       0.17072733       0.06605138      -2.79066954       1.60121842      -1.26452088
I       28.67440212      11.54694857       5.93859147      -0.24929566      -0.12338159       0.37803764      -1.01315197       1.04336944       1.08105629
I       28.36557446       4.27385079       3.43605133       0.05804491       0.33371305       0.32906879      -0.16788583       0.74437677      -0.78975144
I       35.42678816       2.96149251       3.39898307      -0.27672765      -0.05490844      -0.07775895       0.32212052      -0.48951300       0.61196353
I       21.62019083      12.81499985       5.88066193      -0.20804902       0.09804740      -0.09627303      -2.93136430       0.17406833       0.98081714
I       30.52246894       8.25241398       3.48213663       0.04128437      -0.09654946      -0.29374060      -1.54882694      -2.54029378      -1.12333291
I       26.44872301       7.57728149       5.95029781       0.06210957      -0.08207973       0.12499383       0.56382687       0.26163965      -0.80924268
I       22.97176357       5.82798840       3.73558014       0.23777949      -0.14054649      -0.02373714       0.21879453      -0.85285077      -1.52741188
I       33.46500936       9.86411289       5.85317043       0.20345135       0.25930094       0.01262304       0.34857373       2.44505627       1.43768468
I       24.70589065      10.81835095       3.10429954      -0.39368989       0.28527918       0.35923627       0.92375493       1.22603432       2.45393293
I       32.31747738       4.70002750       5.60225019       0.48304472      -0.18665500       0.23191390       0.39457418       0.15578510      -2.30836052
I       19.27050365       6.19779698      10.86868830      -0.14170925       0.04989467      -0.21626488       1.32060116      -1.81346770      -2.24405775
I       19.57768294       9.66193911       8.39651500      -0.21548576       0.13747064       0.03271771       0.26016087      -3.19362710       0.88647787