320
Lattice="25.121854697261806 -0.05977452525107978 -0.12957468506993428 0.07192418218408468 24.82535238426277 -0.21579304325525844 0.12447059888337542 -0.778188195725328 24.81728374174729" Properties=species:S:1:pos:R:3:forces:R:3:momenta:R:3 energy=-971.0515157963808 stress="0.0 0.0 0.0 0.0 0.0 0.0 0.0 0.0 0.0" pbc="T T T"
Cs      10.04043476      14.86692337       6.14272821      -0.12398081       0.00311535       0.44686122       2.38258172      -3.52745786      -3.25946796
Cs       3.96181858       9.96619177       5.11970365      -0.06344533      -0.00888051      -0.07796355       0.62702083       1.96210881       0.77899324
Cs       2.90708288      10.14755040      11.19049332       0.27685225      -0.15823242       0.21649925       0.66385588      -3.40013697      -0.47753870
Cs       9.21801484      15.19333690      12.46589706       0.19457367       0.07760473       0.01025578       0.17955411      -0.28331374      -1.09190928
Cs       9.86409304       8.67266193      12.11986849      -0.00583599       0.02688448      -0.09222067       2.27755827      -2.10913832      -0.55640572
Cs       3.42904537      15.96254805      10.55527783      -0.31864629      -0.07286034       0.20317845       1.40203194       0.43804166      -1.53435316
Cs       4.11395276      16.61765213       5.27782651      -0.32519456       0.02771152       0.02627989       1.19418762       0.84035543      -0.45880412
Cs       9.37432764       8.78470159       6.79671701       0.07675590       0.24966167      -0.05289384      -0.77387167       0.43920803       0.37276722
Pb       0.21651867       6.15510957       8.62646599      -0.17235208      -0.16214010      -0.19187380      -5.31141870      -0.04535859      -0.93345434
Pb       6.94013318      12.60169547       9.12563195       0.10279709      -0.09302413       0.07922061      -1.17449160       1.49292469      -3.01490222
Pb       0.65324927      12.50270360       8.85744615      -0.61881177      -0.07901309       0.41220042       0.54835748      -0.31097971       3.00290076
Pb       6.63142461       6.21428030       8.79641860      -0.48113047       0.06822298       0.17047284      -0.74466585      -2.89680703      -3.84655749
Pb       0.04779000       6.80840558       2.96711734      -0.10855109       0.00250127      -0.74588975       1.04579343       6.44455132      -1.33200194
Pb       6.65030511      12.65226227       2.59302415      -0.15396580       0.02640949      -0.03029800       0.78706109      -3.86662558      -2.13171395
Pb       0.44350428      12.73157837       2.86324341      -0.01664862      -0.12702251      -0.09408767      -2.69545625       1.54988766      -1.46695623
Pb       6.33125405       6.28848280       2.55664402      -0.15862742      -0.08692037      -0.34120620       1.01430270      -1.94063888      -3.24475725
I       24.96129554       9.27573361       9.23319740       0.05427003      -0.11579236      -0.01895374      -2.30592386       2.30560546       1.28146980
I        6.09159045      15.54699751       8.40848900       0.20553144      -0.06550810      -0.23843266       1.12030318      -4.31776126      -0.37243131
I       13.73081602      15.28525348       7.99288006      -0.19200387       0.31621265       0.21403479       2.09358837       0.71527420      -1.24609752
I        7.17236622       9.39120569       9.65547026      -0.24390840      -0.29457497      -0.12065750      -2.03151123      -0.10156665       2.60123313
I       10.24018795      12.80841081       9.66544465      -0.84683448      -0.03628914      -0.17228264      -0.16822642       0.18881858       0.34743313
I        3.12703290      18.89183828       8.28150683      -0.35574177       0.12510483       0.00532984      -0.08546147      -0.85381452       1.60469280
I        3.64756722      12.20219269       8.17145768       0.19676173       0.04251721       0.03589769      -0.60959112      -2.58654764      -0.00135574
I        9.63867584       5.36350173       8.41844848       0.08259441       0.10586039       0.08085856       0.82805699       1.74996745      -1.67166682
I       12.01496164      15.63611672       3.25600094      -0.02977239       0.00825348      -0.00503757      -0.83143204       3.09012697       1.03423765
I        6.26088784       9.57977619       1.80533070      -0.09990145      -0.02086187       0.18779774      -0.32060001      -2.84233585       0.71820988
I        0.67708850       8.89287703      14.15968040      -0.03730317      -0.07198300       0.08150563      -3.01264787       0.80554307      -2.86812247
I        7.19665511      15.31305454      15.69942578      -0.20394139       0.32048552      -0.24497117      -0.89134916       2.17754437       0.32071577
I        3.33922380      12.68843151      15.72125315       0.16103629      -0.11358727       0.05480677       0.42295767      -1.28246373       0.04115608
I        9.40267059       7.37208028      15.50088748       0.42389201       0.02741422       0.29277530       1.33321754      -2.83678464      -2.36201110
I        9.54071802      11.55229344       1.29749013      -0.09716915       0.14085008       0.11160741      -1.84109277      -4.64563922       4.06876759
I        3.41747009      18.62083278       2.02851837       0.28092518      -0.05788929       0.00080389      -1.04676834      -2.68514789       1.87864530
I       24.29470180      17.73319443      11.53516669       0.30333288       0.16248626      -0.34219986      -1.64602570       1.34399655      -0.21808470
I        5.51465719      13.40001612      11.96100153       0.37697770      -0.37441944       0.32615164       1.80761329      -3.43769760       0.32295499
I       13.23858413       6.56376929       5.90459116      -0.08934747       0.10929814      -0.21937785      -2.43943422       0.26949181       3.17825653
I        7.04308642      12.11246250       5.69800955       0.22548527      -0.07802446       0.13211426       0.56156762      -1.56143713      -1.75472039
I       25.07910617      11.45409152       5.66869141       0.29569893       0.24298212       0.22373515       0.65025057       0.52038605       1.52990748
I        6.02093756      19.25072153       5.23724813       0.14397998       0.13765761       0.19787803       3.91476063      -0.60622273      -0.81594754
I       13.66418736      12.87970905      11.85068856       0.17954821       0.27617360       0.03728364      -0.09783348       2.55508682      -1.09713270
I        7.53971131       5.31550164      11.70085887      -0.16762015      -0.05800897       0.13810401      -1.62375902       4.30407632      -3.22757576
Cs       9.23319772      14.24730858      18.73145560       0.27839442       0.24446349      -0.29285788       4.14339544       0.24836122       0.17960602
Cs       3.13641134       9.14579439      17.38291652       0.00680382      -0.06180192       0.12173290       0.53044601      -0.65690040       1.71549185
Cs       3.94183698       9.26037677      23.94849972      -0.27390113       0.06374269      -0.08746112       0.12160103      -2.23517187      -2.05514247
Cs       9.99432186      14.95117348      -0.49924828      -0.12554934       0.04818481      -0.13593549      -1.14157375       1.93225218      -0.84443874
Cs      10.05874195       7.62159851      23.74379315      -0.25544539       0.05245994       0.08626601       1.86839396      -1.08984037      -3.93643688
Cs       3.30561617      15.48254258      23.73585002       0.02576885      -0.08733473       0.14878248       1.11199752      -0.40128817      -4.17098709
Cs       3.13761957      16.23209385      17.45942562       0.12642329      -0.02679046      -0.38109379      -3.75681363       1.52793734      -1.37224890
Cs      10.07213254       9.02931120      19.47568990      -0.38361596      -0.34323178      -0.01452519       0.08385778       1.77075458      -2.51026818
Pb       0.05715137       5.67612479      21.32445665      -0.25244521       0.08320047      -0.12466649      -5.21356915       1.20244409      -4.27456385
Pb       6.17239819      12.19796629      21.20720812       0.19091138      -0.30661899       0.31670907      -1.36171127       2.04444202       0.62788892
Pb       0.35199032      12.21551154      21.53173907      -0.37530318      -0.37073882      -0.30104826      -1.22058872      -0.58783487       5.08795704
Pb       5.97139651       5.78571408      20.98024395       0.81312471      -0.05987979      -0.04766383      -2.61617298      -2.04350828       1.60546037
Pb       0.43733191       5.61030936      14.88133563      -0.39720828       0.27111373       0.05900225       1.27536554       2.87604241       0.47635235
Pb       6.66705168      12.00988733      15.22966484      -0.55551460       0.47797679      -0.41368690       0.18981341       2.02733800      -1.46849387
Pb       0.25384097      11.74558347      15.30110806       0.06810241       0.56662145      -0.21525989       0.92096987       0.79200653       0.72859841
Pb       6.58496460       6.01807129      14.61939952       0.00009339      -0.04144174       0.38682061      -1.20596207      -0.38740753       0.14996815
I       25.03134737       8.98135628      21.57679936      -0.10259524      -0.29542388      -0.01341333       1.65451547       0.21503766       2.14483026
I        5.83466460      15.09768054      19.79061554      -0.00319055      -0.06199749       0.27109468       0.96829003      -1.22029848       2.15390423
I       12.77010884      14.89566675      20.13593038       0.17570950       0.31235544      -0.03028612       2.00663555       1.31626563      -0.30191382
I        6.56166875       8.90044410      21.91903559      -0.00401570       0.03397866      -0.11747951       3.13210228      -3.38322014      -0.37363569
I        9.57406463      11.63733031      21.06791672       0.14086159      -0.11908561       0.32545955      -0.91113769      -1.30949196      -3.14505371
I        3.28352586      18.45122581      21.92387534       0.18337356       0.27633339      -0.10121089      -1.44918833       0.85380681       2.72088951
I        3.25551145      11.54020028      20.68278274      -0.02431413      -0.17281556      -0.07935437      -1.18098318       0.31006185      -4.09315128
I        9.56210182       5.26324899      21.52342898      -0.02124783       0.38922319       0.06786444      -1.11351009       0.39694103      -2.34930584
I       11.86385487      15.43387473      15.78719278       0.04041587      -0.35066059      -0.11275867      -1.87927692       2.19149996       1.73413392
I        5.66488153       9.26435589      14.14891864      -0.04390758      -0.37238945      -0.15872986       2.82407150       0.42452350       2.59526595
I        1.14191127       9.60330073       1.75479999      -0.10429160       0.28980391       0.05802924      -3.94426276       0.70469799      -0.56384141
I        7.79480134      15.85979396       3.26499217      -0.06183215      -0.64899732      -0.06597043       1.54111422      -2.11782052       0.53988783
I        3.38490526      13.39026557       3.40908774       0.67399743      -0.02452913      -0.09324923       2.45495089       1.75982074       1.36112775
I        9.31092118       7.80982142       2.99718494       0.43874922      -0.34183959      -0.10604667      -1.31531315       3.59183504       1.58152320
I        9.66773300      11.71058052      14.24931185      -0.17037695      -0.00404319       0.02071792       0.11685371      -0.58184660      -0.16914013
I        3.14609757      18.10993804      13.73539090       0.50550731      -0.12550433       0.17812570      -0.55469545      -2.92084028       1.24105050
I       25.01721287      16.82091281      23.82814249      -0.00061869       0.17674999       0.09134745      -1.07260190       1.71877980       1.38946984
I        5.75403688      12.83732065      24.38268410       0.20614026      -0.04857055      -0.10987393       0.84133936       0.95031071       1.32861867
I       12.93709488       6.49933356      18.28106457       0.14820647       0.04249094      -0.17148863      -2.06102168      -0.49439892       2.23225848
I        6.91663955      11.34283456      18.22962344       0.01699471      -0.21356800      -0.33506841      -0.93123431      -0.62332905      -0.18054898
I       24.76984565      11.11420465      18.23475058       0.03474080       0.20541904      -0.14942290      -0.52100341       2.61570742      -1.21200373
I        6.11275287      19.00630966      17.88209844      -0.17473335       0.00520805      -0.20166395      -0.01081340      -0.29657969       0.31904859
I       12.80453579      12.67068272      24.12541452       0.24533427      -0.15823755       0.34175872       5.99833248       1.91430321       2.35783664
I        6.63672719       5.13569243      24.22755833       0.01011540      -0.09490906      -0.06932322       1.42583172      -1.22396832      -1.09225185
Cs      10.07178302       2.80011052       5.75868741      -0.34860522      -0.16350512       0.02494360      -2.00684115       3.05239370      -2.00636935
Cs       3.11113583      21.77409323       4.24246219       0.20227849       0.10111566       0.07031980       0.83878783       2.04470150       0.19313222
Cs       2.78679651      21.57765537      11.00734229       0.39479870       0.10781122       0.10024894      -2.98145607       0.85351992      -1.06067518
Cs       9.85581244       2.20595869      12.32995369      -0.19850576       0.03658536      -0.01378506       1.06502752      -0.74072910      -0.07231997
Cs       9.27864368      20.63821248      11.87406500       0.27087475       0.01853354      -0.11585615      -4.35641877       2.88097601       0.67096984
Cs       3.27676547       3.03385357      11.34542402      -0.12161400       0.07373495      -0.06582068       2.43111386      -1.75218688       1.60994138
Cs       3.23734614       4.00855666       5.32374702      -0.02375857      -0.11234819      -0.23024037       3.09432797      -4.41753210      -0.61049459
Cs       9.34786320      21.88988263       6.40416740      -0.02939020      -0.22767588      -0.01068181       1.61194585      -4.27347280       1.94747979
Pb      -0.26459615      18.24872367       8.54316481      -0.05844480       0.36300069      -0.03452432      -4.13734482      -4.50587942      -1.87836917
Pb       6.43594853       0.32209535       8.67292995      -0.24718265      -0.72149346      -0.14036931       2.40802798      -0.93341029       3.30862019
Pb       0.15470271      -0.26340525       8.38313308      -0.10989964       0.35068476       0.32680887      -1.18995355      -1.05344563       3.45351301
Pb       6.39155133      18.82859570       8.35950677       0.01636812       0.26318453      -0.12572816      -0.73299052      -1.20427568      -1.69733034
Pb       0.25570903      18.92003574       2.37815590       0.14259784      -0.43827701      -0.33512807       1.37392147       1.75934227      -0.19917874
Pb       6.42958363       0.05829049       2.30611450      -0.12163038       0.01101833       0.08220505      -4.68013471       0.24065467       1.47732734
Pb       0.16693881       0.43696539       2.30805576       0.17728347      -0.34963830       0.11000632      -2.93806590      -1.69331604       0.03019092
Pb       6.97297871      18.47719849       2.12596865      -0.36360775       0.54026546      -0.01298364       3.00851551      -2.07993622       2.76369667
I       24.54829019      21.55968385       8.81789599      -0.09457227      -0.39861899       0.08404504       2.66144289       0.94436105      -2.12534320
I        5.46803106       3.11437038       8.11125282       0.23698589       0.34193950      -0.00754552      -2.25002140       2.21411628       0.84691809
I       13.37213954       3.21572129       8.29014437       0.25023002      -0.64907138      -0.33974201       1.20884523      -0.27920636       3.21609057
I        7.29932991      21.76943842       9.12518938      -0.35666156       0.28491015      -0.15546794      -2.22215384       1.93584777       0.90963086
I        9.69532484       0.71534079       8.91847914      -0.30746837      -0.08881213      -0.03372061      -0.94532025      -0.77041111      -0.31589890
I        3.16579087       6.44420094       9.48375811       0.82622532       0.08233745      -0.10124768       1.40236458       1.13982842      -0.65556619
I        3.37598224      23.53805844       7.86177646       0.11517936       0.17428629       0.03563550      -0.49840970      -3.65503756      -2.62519173
I        9.47914867      18.31129939       8.42574873       0.22275447      -0.18600792      -0.27458833      -1.65598384       1.96335433      -2.57143656
I       12.11177590       3.16464733       2.81783073       0.11786540      -0.00550585       0.10192060       1.52538404      -4.41690635      -1.89152241
I        6.01498127      21.77356176       1.66683814      -0.01081659       0.01999440      -0.14718895      -1.05260055      -0.88968212       2.66408277
I        0.73738373      21.36097801      14.12023570      -0.15608115       0.25206578       0.04596703      -0.71451953       0.85685518      -1.39231911
I        7.28972407       2.88058132      15.44526172      -0.11122908       0.04730838      -0.15967723      -1.73135535       1.02892217      -2.08833991
I        3.41576997      -0.02711802      15.28689921       0.29470408       0.13108436       0.04314078       0.82414502       2.74824776      -0.00935542
I        9.50165275      19.56203088      15.40890446      -0.43485359      -0.26804642      -0.16930866      -1.70683552       1.51233783       2.03944757
I        9.62463582      24.79518540       1.64678802       0.48584176      -0.20459476       0.05556168      -0.90865744       1.85275937       4.83620155
I        3.06429092       5.78291903       1.98295775       0.48427798       0.14222663       0.18263766      -2.91673217       0.74259213       0.43900674
I       25.15013346       5.10636970      11.54843378      -0.12746351       0.05215251      -0.32564640      -0.96918661      -3.27260083      -2.13548043
I        5.79039729       0.37161760      11.73156640       0.12814472      -0.06381146       0.17060134      -1.52995474      -1.70222180       1.35200620
I       13.52346624      19.60770630       5.40732212      -0.18127050      -0.14735627       0.33225097      -2.38227006       3.37177368      -0.55837909
I        6.77784066      24.60222483       5.18026542       0.11746961      -0.11401115       0.36829204      -1.85713614       3.82027586       1.37678527
I       24.89439506      23.95440902       5.11955797      -0.14369861      -0.04913378      -0.31603292      -1.47718598       2.95935879       2.29892029
I        6.30537342       6.85982883       5.69042673      -0.22163226       0.07181862       0.16165914      -0.47555964      -0.07655615       0.07686371
I       13.40055750       0.76314843      11.80889848      -0.12836596      -0.25476122       0.04063175       1.78199149      -0.74436661       0.15395351
I        6.72429514      18.16026900      11.54500150       0.10104124      -0.21242834       0.13436270       1.78715122      -2.56705676       1.10877399
Cs       9.38545642       2.73995860      18.69978678       0.04277145      -0.23685206       0.13333567       1.03987022      -2.40998673       5.66695174
Cs       3.37433717      21.83318416      17.63178339       0.12992334      -0.03975345      -0.33536599       6.54173717       0.78501403      -1.50081930
Cs       3.47545500      22.07848638      23.62814458      -0.01759784      -0.05599052       0.20131224      -0.86475493       0.79014281       2.23944337
Cs       9.35581438       3.01979320      -0.13042369       0.01660455       0.19844698      -0.19983460       0.64375828      -3.97837901      -0.44336684
Cs       9.33455942      20.78868165      24.30449365       0.26190454      -0.02595705      -0.22974753       1.58517794      -0.08860595      -1.02856597
Cs       3.00999072       3.22793117      23.63062464       0.25205573      -0.09454956      -0.08305132      -3.31289467      -3.29776894      -0.45649606
Cs       3.44677250       3.05784427      17.52202367      -0.01568884       0.02201134       0.25423412      -0.47173282      -5.52990946      -1.27746764
Cs       9.67497054      21.22848811      18.63688753      -0.09707718      -0.06237468       0.14731201       0.40134855       3.57216662      -0.64703145
Pb       0.47555431      18.11696882      21.02936717      -0.51002589       0.05765293       0.07826757      -1.14230471       0.23615207      -0.33836464
Pb       6.36723894      -0.70860542      21.06215179      -0.00291623       0.46385944       0.18066999      -5.78710789       0.23212556      -6.60708027
Pb       0.02098256      -0.61637476      21.10798655       0.24176222       0.08448442      -0.02678983       3.18176606      -0.05023357      -1.51500469
Pb       6.31516352      18.04004963      20.81641139       0.38676929      -0.00938174       0.13700305       2.03150269      -0.36287245      -3.25118548
Pb       0.11435928      18.28064345      14.78517226      -0.03619256       0.14799619      -0.10269692      -1.73881860       3.08298960       1.39705807
Pb       6.52555636      -0.45722766      14.86914863      -0.01609430       0.59477712      -0.01713541       1.44400470       0.99718937       3.93646412
Pb       0.24451258      -0.30310800      14.91478439      -0.04793781      -0.20679023      -0.17013702      -3.95461931       3.02709919       0.97502480
Pb       6.28199373      18.41875360      14.46160421       0.20183201      -0.17520622       0.65677813      -2.67247618      -3.57000304       2.00391202
I       24.89523137      21.16685939      21.91524732      -0.02502420      -0.19344583      -0.15454849      -0.48740499      -0.08161848       2.44336854
I        6.23893823       2.52204791      20.24586516      -0.19796681       0.18514020       0.11559745       2.12207411      -0.17165948       1.42622638
I       13.66201205       2.42424794      20.40967979      -0.13984880       0.16864934       0.01605671      -0.08539438      -2.22085270       0.04069613
I        6.23660558      21.18693686      21.84149141       0.30823895      -0.11652840      -0.01855359       0.73433998       2.00371188      -0.70952844
I        9.62133165      -0.20644469      21.60357666       0.12624176      -0.12785422      -0.11951537       0.89600867      -0.12718700      -1.60780253
I        3.04078272       6.40642364      21.24453140       0.29117467      -0.01120169       0.11312483      -3.41496965       0.55285357      -2.05530186
I        3.37666165      23.93435339      20.22203416      -0.05133287       0.12946644       0.19507535       3.38348496       1.57883061       0.60517761
I        9.47872375      17.86214536      20.45319603       0.22084433       0.08390812       0.07891650      -1.43607399      -2.84975893      -0.07155438
I       11.54795367       2.98129826      15.59581702       0.27645417       0.02773088      -0.02122404       2.36802365       2.93931415       0.20779352
I        5.87604363      21.64388264      14.00026607      -0.21278075      -0.51230150      -0.19698492       1.76594619       3.98562065      -0.89318864
I        0.55565382      21.73907155       1.38515411      -0.17205617       0.74412509       0.06095955       0.09363050       2.07854442      -1.22086843
I        7.24727957       3.11744362       3.11260713      -0.12149555       0.53065556       0.01430099       2.62343991      -1.31724933      -1.86600606
I        3.31630082       0.61443701       3.01706431      -0.09042904       0.13031499       0.03094435      -1.59429049      -0.18030147       0.94940766
I        9.77217145      20.14741219       2.90814216       0.07619215      -0.13754945       0.07893702       1.02388644       2.45828422      -1.39835302
I        9.75667732      23.61008791      13.80210997      -0.51187135       0.09185057       0.05066687      -1.42450509       0.97115843       4.80312327
I        3.42180049       5.35424191      14.50863400       0.12421944      -0.05854767      -0.16455326       0.31558587      -4.23184658       0.98796621
I       24.82830287       5.20767352      24.15344397       0.09326887       0.25399714       0.03115381       1.16686262       2.27492023      -3.53127532
I        5.90654462       0.44796540      24.16560205      -0.05210191      -0.02770203      -0.37841201      -1.50130693      -0.27358725      -1.30519163
I       12.88703777      19.19497360      17.74319254       0.22747349      -0.02825756       0.42697596      -3.30586899       2.11631658      -2.60256264
I        6.83391484      23.45764231      17.67461008       0.14497244       0.21093946       0.07303655      -0.15173879      -1.54570442      -1.28009559
I       24.96726348      23.41427938      17.71556911       0.11672110       0.26656224      -0.13823933       3.23613715       0.66943479       1.84378383
I        5.94367641       6.49402418      17.88208411       0.13587500      -0.00153133      -0.00366998      -1.64569499       0.48910977       0.41126001
I       13.27918025       0.10599484      24.30298570      -0.04250715      -0.16729021      -0.20092080      -1.58943239       1.69667666      -0.41920476
I        7.47057866      17.05587411      23.97627498      -0.09199893      -0.00370861      -0.24492481      -0.93662597      -2.75513869       3.20798269
Cs      22.03992048      14.23541932       5.25335149      -0.08812921       0.14311494       0.33546899       0.23410385      -2.24818951       0.81130895
Cs      16.03368458       9.18699044       4.52294650      -0.32935822      -0.08047978      -0.06253948      -0.23412925      -0.32359365      -2.49777336
Cs      16.24037296       9.40771890      11.84077199      -0.11781448       0.16100353      -0.29031553       0.60284155       0.15246055       1.20977459
Cs      21.84633053      15.15453715      12.19039745       0.09176171      -0.16335777      -0.01484135       2.78554476       0.41823520      -0.41128181
Cs      22.42764909       8.57384885      11.94350868      -0.00805152       0.09017257       0.05278522       3.56345381      -1.99939674      -0.04676728
Cs      16.16880745      16.28897237      11.56824447      -0.08892479      -0.34176375      -0.09409917      -4.14482206       2.90017760       0.13018265
Cs      15.52635960      16.56001353       5.26654473       0.38929402      -0.16034720      -0.00809728       1.10214751      -1.79003733       2.63272863
Cs      22.06233677       9.56803177       5.94298122      -0.14651432      -0.20102730       0.02832843      -1.80801529       3.35157070       0.24449297
Pb      12.91211464       6.08698607       8.93014655       0.02370361       0.43048365       0.24008605      -2.68452531      -0.17405746      -0.02263492
Pb      19.11497127      12.28943936       8.80000088      -0.34300790       0.05789792       0.08886961       5.73324206       5.13059722      -3.66735744
Pb      13.39127921      12.28311444       8.94826882      -0.03609293      -0.15443766      -0.56510967       2.15731497      -2.82940605      -5.59543991
Pb      19.25892907       6.10479163       8.50237169       0.01254921      -0.18125855      -0.59403532      -2.87952271       2.61787013      -0.70555710
Pb      12.37016153       6.37937081       2.60692993       0.29368795       0.51936046       0.26688686      -0.81217436      -5.98636274      -5.95498437
Pb      18.52304596      12.79234214       2.58796139       0.43881442      -0.40477960      -0.11102974      -0.17505814       1.24526855       2.41218687
Pb      12.32783362      12.64120950       2.74603473       0.24248778      -0.77835458      -0.08146680      -3.17994828       0.14743221      -1.79627753
Pb      18.89088231       6.34062548       2.15284139       0.42783253       0.07984726       0.23622004      -0.09323958       0.52107957       5.03194097
I       12.58982143       9.20090903       9.53237365      -0.10627910      -0.12588421       0.07636250      -3.65876054      -1.82517525       1.06476130
I       18.61769442      15.16592909       7.89267585      -0.34985368       0.43520525       0.03545445       0.03423196       0.84532340       1.63146109
I        1.20001251      15.43876733       7.83780114      -0.26429689       0.07595496      -0.13541179      -1.53154243      -0.97319755      -2.53343730
I       19.77417362       9.00798743       9.19345027       0.02657527       0.14099600       0.13800427       2.81957610       0.88396451      -2.04145068
I       22.22297152      12.60523870       9.15245234       0.55875388       0.04023399      -0.21768206       1.35945130       0.61895282      -2.07887333
I       15.63807833      19.05800876       8.96005513       0.18519767       0.19905006       0.12881637      -1.31111168       3.26697178      -2.33169991
I       16.10072592      10.39812715       7.83299510       0.08283159       0.30295584       0.36187768       2.00770900       2.07876328      -0.33554192
I       22.28414509       5.82514747       7.14672990      -0.11157851      -0.21434250       0.06885571      -0.97499154       0.64893013       0.64010546
I       24.94949092      15.69992423       3.42524315       0.26587933      -0.09290118      -0.13634405       2.03079415       0.84041799       1.98941079
I       18.67039148       9.49653432       1.87709253      -0.07451048       0.35328347      -0.15071279      -1.31926991       2.17542589      -0.82855600
I       13.48585040       9.22736013      14.44500348      -0.14394089      -0.22287315      -0.09761176       2.91974524      -2.68287899       0.67926609
I       19.57010835      15.55149872      15.47942981      -0.19716715      -0.61090095      -0.06142078       1.55487355      -1.02346027       0.17844416
I       15.83248489      12.59018140      15.47238706       0.20424853      -0.08088576      -0.00307946      -1.32550292      -2.40439402       2.53008832
I       22.19332917       5.91352791      14.71551764      -0.00171405      -0.08622982       0.07511139      -4.99615343       0.82416942       1.14481057