320
Lattice="35.78794042575779 -0.37839846603646177 -0.24217113649280456 0.2257959835333163 21.00955516298944 -0.015306901360210465 0.11054213265190213 0.01896394099226511 19.312856914076352" Properties=species:S:1:pos:R:3:forces:R:3:momenta:R:3 pbc="T T T"
Cs       7.38250934       3.14321038       6.32971783      -0.01551986      -0.16377195      -0.03278953      -0.54955277      -1.13822158       1.32731713
Cs      13.58408410      11.38502286       3.77650080       0.08874178       0.23777993       0.07850040       0.01761249       1.93472782      -0.68954979
Cs       4.70639308       8.25353898       6.36913230      -0.04951625       0.08177150       0.11704562      -0.38578279       1.29854508      -0.43831255
Cs      16.02853119       6.28768755       3.94998035       0.22921959       0.11803144       0.09448501       2.51135568       1.93295647      -0.97314251
Cs       7.58908367       2.92531178      11.24655761      -0.12079909       0.10310719      -0.01256206       0.42969501      -1.12082075       2.24430613
Cs      13.43715272      11.46121392       8.69059287       0.13993674       0.14652668       0.11126085      -0.25103232      -0.34013797       2.92700278
Cs       4.69869394       8.46283344      11.38866502      -0.16938884      -0.12978684      -0.25890737      -0.33811612      -2.66957100       1.39877263
Cs      16.29911374       6.53331264       8.84484130       0.02416231      -0.10178632      -0.14213684       0.03116786       0.04483806      -0.46388909
Pb       2.59049525       4.00884214       4.05489029       0.07839774      -0.06761950      -0.07454864      -2.75559153      -1.60938912       0.70658295
Pb      18.38859533      11.00962483       6.24774303      -0.08600572      -0.28400327       0.20194556       2.25176790       1.00438417       0.59800378
Pb       9.33057768       8.96100748       3.82053198      -0.03855240      -0.04120330       0.19053053       1.21552090      -1.11015137      -1.62380588
Pb      11.60115926       5.51087491       6.06892486      -0.12402949       0.08353954       0.22035567       2.12686147      -2.74053232      -2.35381965
Pb       2.55968116       3.97691918       8.91196757       0.22409376       0.09110358       0.06686836      -1.47437251      -0.77489730      -1.72644036
Pb      18.43426926      11.00932150      11.02822788      -0.02301705      -0.15603547       0.04021095      -2.99580785       1.03006792      -0.55489298
Pb       9.30028331       8.91789740       8.75392738      -0.03428526       0.15810850      -0.14330994       1.94071158       0.20199813      -2.18396713
Pb      11.49071919       5.71638668      11.02917525       0.03563952      -0.15248726       0.10815835      -1.33576923      -0.93825272      -2.57498509
I        1.56505985       5.83340396       6.42276582      -0.10095147       0.09841472       0.09085244      -1.64250192       0.85268418       1.96575701
I        1.41446477       9.37367980       4.00775834       0.13185746      -0.19821268      -0.01509108       1.78643237      -1.39560390       0.31115198
I       10.63516582      10.66504351       6.26755674      -0.23996864       0.09882303       0.08525006       1.60421945      -2.33330948       0.92718360
I       10.62593136       3.56343065       3.95343239      -0.18001999       0.08658679      -0.39074882       0.71261808       1.47414840      -2.25692004
I       17.35280095       2.50581550       3.91423613      -0.01517526      -0.07122809      -0.00233103       2.38813420       1.04859861      -1.76536530
I        3.57124563      12.44478017       6.44341572       0.02882577      -0.01566172       0.17527667       1.07639890       0.11529169      -0.11673959
I       12.44508914       7.81238107       3.79274383      -0.02885149      -0.35454493       0.04912840      -1.31404735       1.76436694       0.21643689
I        8.57302385       6.99019067       6.33387316      -0.26722156      -0.12733506      -0.10687098       0.03039370       1.68439556      -2.55714062
I        5.40602601       5.40068396       3.79826271      -0.07012718      -0.10355287       0.14076058       1.32308257       1.02383872      -0.41574664
I       15.64990941       9.36963194       6.36001129       0.08905902       0.09496787      -0.02711886       1.57580435      -1.52206876      -0.40294139
I        6.62506525      10.50648178       3.85418206       0.08558146       0.12788139       0.21876084       0.88553384      -0.47385013      -2.49212470
I       14.15624610       3.89835501       6.37778153       0.26768656       0.06117158      -0.00544511       1.53540439      -2.19710574       1.13919412
I        1.45031257       5.86759098      11.46941054       0.06778866      -0.04440870      -0.30479199      -1.75982985      -0.43921533      -0.81011376
I        1.58857247       9.10538124       8.90573473      -0.06053238       0.33548946      -0.15931266       0.23542945      -2.28279669       0.82797888
I       10.56682369      10.66967713      11.13220902       0.08466578       0.27110567      -0.04849846       0.64867742       0.96908200      -1.68575548
I       10.35382189       3.81554106       8.70606159       0.12761943      -0.03078961      -0.08896272       1.14871381      -3.15486611       1.07848369
I       17.31827230       2.52406704       8.68219061       0.02097691       0.01476371       0.05996596      -0.61886787       0.76436909      -0.93304333
I        3.67631479      12.42776851      11.31550441      -0.13772618       0.05562185      -0.12748172       0.66506296       0.64789051      -0.10681859
I       12.31601088       7.55013001       8.53063506       0.24356224       0.12732290       0.26963501       0.08128265      -0.05073700      -0.03000750
I        8.37778419       6.87444024      11.14227017       0.01456441       0.10797603       0.01567068       0.73175476      -0.30735856       1.16799863
I        5.45861296       5.28122142       8.83570777      -0.29378079       0.00387101       0.06063689      -0.18776461      -0.92913075       0.49081211
I       15.71025387       9.39611722      11.22313475       0.03489446       0.06433333      -0.13656476      -0.30544133       0.37739823       0.26945283
I        6.71191974      10.74429719       8.94256646       0.01878770      -0.23830263      -0.23454186      -3.16189445      -0.96154989      -0.23698937
I       14.20242707       4.30453189      11.14476781       0.01940758      -0.28756750      -0.08328443      -0.82483855      -0.51478868      -2.36556952
Cs       7.43778041       3.15269235      15.98614629      -0.01551986      -0.16377195      -0.03278953      -0.54955277      -1.13822158       1.32731713
Cs      13.63935517      11.39450483      13.43292926       0.08874178       0.23777993       0.07850040       0.01761249       1.93472782      -0.68954979
Cs       4.76166415       8.26302095      16.02556076      -0.04951625       0.08177150       0.11704562      -0.38578279       1.29854508      -0.43831255
Cs      16.08380226       6.29716952      13.60640881       0.22921959       0.11803144       0.09448501       2.51135568       1.93295647      -0.97314251
Cs       7.53381260       2.91582981       1.59012915      -0.12079909       0.10310719      -0.01256206       0.42969501      -1.12082075       2.24430613
Cs      13.49242379      11.47069589      18.34702133       0.13993674       0.14652668       0.11126085      -0.25103232      -0.34013797       2.92700278
Cs       4.64342287       8.45335147       1.73223656      -0.16938884      -0.12978684      -0.25890737      -0.33811612      -2.66957100       1.39877263
Cs      16.35438481       6.54279461      18.50126976       0.02416231      -0.10178632      -0.14213684       0.03116786       0.04483806      -0.46388909
Pb       2.64576632       4.01832411      13.71131875       0.07839774      -0.06761950      -0.07454864      -2.75559153      -1.60938912       0.70658295
Pb      18.44386640      11.01910680      15.90417149      -0.08600572      -0.28400327       0.20194556       2.25176790       1.00438417       0.59800378
Pb       9.38584875       8.97048945      13.47696044      -0.03855240      -0.04120330       0.19053053       1.21552090      -1.11015137      -1.62380588
Pb      11.65643033       5.52035688      15.72535332      -0.12402949       0.08353954       0.22035567       2.12686147      -2.74053232      -2.35381965
Pb       2.61495223       3.98640115      18.56839603       0.22409376       0.09110358       0.06686836      -1.47437251      -0.77489730      -1.72644036
Pb      18.37899819      10.99983953       1.37179942      -0.02301705      -0.15603547       0.04021095      -2.99580785       1.03006792      -0.55489298
Pb       9.35555438       8.92737937      18.41035584      -0.03428526       0.15810850      -0.14330994       1.94071158       0.20199813      -2.18396713
Pb      11.43544812       5.70690471       1.37274679       0.03563952      -0.15248726       0.10815835      -1.33576923      -0.93825272      -2.57498509
I        1.62033092       5.84288593      16.07919428      -0.10095147       0.09841472       0.09085244      -1.64250192       0.85268418       1.96575701
I        1.46973584       9.38316177      13.66418680       0.13185746      -0.19821268      -0.01509108       1.78643237      -1.39560390       0.31115198
I       10.69043689      10.67452548      15.92398520      -0.23996864       0.09882303       0.08525006       1.60421945      -2.33330948       0.92718360
I       10.68120243       3.57291262      13.60986085      -0.18001999       0.08658679      -0.39074882       0.71261808       1.47414840      -2.25692004
I       17.40807202       2.51529747      13.57066459      -0.01517526      -0.07122809      -0.00233103       2.38813420       1.04859861      -1.76536530
I        3.62651670      12.45426214      16.09984418       0.02882577      -0.01566172       0.17527667       1.07639890       0.11529169      -0.11673959
I       12.50036021       7.82186304      13.44917229      -0.02885149      -0.35454493       0.04912840      -1.31404735       1.76436694       0.21643689
I        8.62829492       6.99967264      15.99030162      -0.26722156      -0.12733506      -0.10687098       0.03039370       1.68439556      -2.55714062
I        5.46129708       5.41016593      13.45469117      -0.07012718      -0.10355287       0.14076058       1.32308257       1.02383872      -0.41574664
I       15.70518048       9.37911391      16.01643975       0.08905902       0.09496787      -0.02711886       1.57580435      -1.52206876      -0.40294139
I        6.68033632      10.51596375      13.51061052       0.08558146       0.12788139       0.21876084       0.88553384      -0.47385013      -2.49212470
I       14.21151717       3.90783698      16.03420999       0.26768656       0.06117158      -0.00544511       1.53540439      -2.19710574       1.13919412
I        1.39504150       5.85810901       1.81298208       0.06778866      -0.04440870      -0.30479199      -1.75982985      -0.43921533      -0.81011376
I        1.64384354       9.11486321      18.56216319      -0.06053238       0.33548946      -0.15931266       0.23542945      -2.28279669       0.82797888
I       10.51155262      10.66019516       1.47578056       0.08466578       0.27110567      -0.04849846       0.64867742       0.96908200      -1.68575548
I       10.40909296       3.82502303      18.36249005       0.12761943      -0.03078961      -0.08896272       1.14871381      -3.15486611       1.07848369
I       17.37354337       2.53354901      18.33861907       0.02097691       0.01476371       0.05996596      -0.61886787       0.76436909      -0.93304333
I        3.62104372      12.41828654       1.65907595      -0.13772618       0.05562185      -0.12748172       0.66506296       0.64789051      -0.10681859
I       12.37128195       7.55961198      18.18706352       0.24356224       0.12732290       0.26963501       0.08128265      -0.05073700      -0.03000750
I        8.32251312       6.86495827       1.48584171       0.01456441       0.10797603       0.01567068       0.73175476      -0.30735856       1.16799863
I        5.51388403       5.29070339      18.49213623      -0.29378079       0.00387101       0.06063689      -0.18776461      -0.92913075       0.49081211
I       15.65498280       9.38663525       1.56670629       0.03489446       0.06433333      -0.13656476      -0.30544133       0.37739823       0.26945283
I        6.76719081      10.75377916      18.59899492       0.01878770      -0.23830263      -0.23454186      -3.16189445      -0.96154989      -0.23698937
I       14.14715600       4.29504992       1.48833935       0.01940758      -0.28756750      -0.08328443      -0.82483855      -0.51478868      -2.36556952
Cs       7.49540733      13.64798796       6.32206438      -0.01551986      -0.16377195      -0.03278953      -0.54955277      -1.13822158       1.32731713
Cs      13.47118611       0.88024528       3.78415425       0.08874178       0.23777993       0.07850040       0.01761249       1.93472782      -0.68954979
Cs       4.81929107      18.75831656       6.36147885      -0.04951625       0.08177150       0.11704562      -0.38578279       1.29854508      -0.43831255
Cs      16.14142918      16.79246513       3.94232690       0.22921959       0.11803144       0.09448501       2.51135568       1.93295647      -0.97314251
Cs       7.70198166      13.43008936      11.23890416      -0.12079909       0.10310719      -0.01256206       0.42969501      -1.12082075       2.24430613
Cs      13.32425473       0.95643634       8.69824632       0.13993674       0.14652668       0.11126085      -0.25103232      -0.34013797       2.92700278
Cs       4.81159193      18.96761102      11.38101157      -0.16938884      -0.12978684      -0.25890737      -0.33811612      -2.66957100       1.39877263
Cs      16.41201173      17.03809022       8.83718785       0.02416231      -0.10178632      -0.14213684       0.03116786       0.04483806      -0.46388909
Pb       2.70339324      14.51361972       4.04723684       0.07839774      -0.06761950      -0.07454864      -2.75559153      -1.60938912       0.70658295
Pb      18.27569734       0.50484725       6.25539648      -0.08600572      -0.28400327       0.20194556       2.25176790       1.00438417       0.59800378
Pb       9.44347567      19.46578506       3.81287853      -0.03855240      -0.04120330       0.19053053       1.21552090      -1.11015137      -1.62380588
Pb      11.71405725      16.01565249       6.06127141      -0.12402949       0.08353954       0.22035567       2.12686147      -2.74053232      -2.35381965
Pb       2.67257915      14.48169676       8.90431412       0.22409376       0.09110358       0.06686836      -1.47437251      -0.77489730      -1.72644036
Pb      18.32137127       0.50454392      11.03588133      -0.02301705      -0.15603547       0.04021095      -2.99580785       1.03006792      -0.55489298
Pb       9.41318130      19.42267498       8.74627393      -0.03428526       0.15810850      -0.14330994       1.94071158       0.20199813      -2.18396713
Pb      11.60361718      16.22116426      11.02152180       0.03563952      -0.15248726       0.10815835      -1.33576923      -0.93825272      -2.57498509
I        1.67795784      16.33818154       6.41511237      -0.10095147       0.09841472       0.09085244      -1.64250192       0.85268418       1.96575701
I        1.52736276      19.87845738       4.00010489       0.13185746      -0.19821268      -0.01509108       1.78643237      -1.39560390       0.31115198
I       10.52226783       0.16026593       6.27521019      -0.23996864       0.09882303       0.08525006       1.60421945      -2.33330948       0.92718360
I       10.73882935      14.06820823       3.94577894      -0.18001999       0.08658679      -0.39074882       0.71261808       1.47414840      -2.25692004
I       17.46569894      13.01059308       3.90658268      -0.01517526      -0.07122809      -0.00233103       2.38813420       1.04859861      -1.76536530
I        3.45834764       1.94000259       6.45106917       0.02882577      -0.01566172       0.17527667       1.07639890       0.11529169      -0.11673959
I       12.55798713      18.31715865       3.78509038      -0.02885149      -0.35454493       0.04912840      -1.31404735       1.76436694       0.21643689
I        8.68592184      17.49496825       6.32621971      -0.26722156      -0.12733506      -0.10687098       0.03039370       1.68439556      -2.55714062
I        5.51892400      15.90546154       3.79060926      -0.07012718      -0.10355287       0.14076058       1.32308257       1.02383872      -0.41574664
I       15.76280740      19.87440952       6.35235784       0.08905902       0.09496787      -0.02711886       1.57580435      -1.52206876      -0.40294139
I        6.51216726       0.00170420       3.86183551       0.08558146       0.12788139       0.21876084       0.88553384      -0.47385013      -2.49212470
I       14.26914409      14.40313259       6.37012808       0.26768656       0.06117158      -0.00544511       1.53540439      -2.19710574       1.13919412
I        1.56321056      16.37236856      11.46175709       0.06778866      -0.04440870      -0.30479199      -1.75982985      -0.43921533      -0.81011376
I        1.70147046      19.61015882       8.89808128      -0.06053238       0.33548946      -0.15931266       0.23542945      -2.28279669       0.82797888
I       10.45392570       0.16489955      11.13986247       0.08466578       0.27110567      -0.04849846       0.64867742       0.96908200      -1.68575548
I       10.46671988      14.32031864       8.69840814       0.12761943      -0.03078961      -0.08896272       1.14871381      -3.15486611       1.07848369
I       17.43117029      13.02884462       8.67453716       0.02097691       0.01476371       0.05996596      -0.61886787       0.76436909      -0.93304333
I        3.56341680       1.92299093      11.32315786      -0.13772618       0.05562185      -0.12748172       0.66506296       0.64789051      -0.10681859
I       12.42890887      18.05490759       8.52298161       0.24356224       0.12732290       0.26963501       0.08128265      -0.05073700      -0.03000750
I        8.49068218      17.37921782      11.13461672       0.01456441       0.10797603       0.01567068       0.73175476      -0.30735856       1.16799863
I        5.57151095      15.78599900       8.82805432      -0.29378079       0.00387101       0.06063689      -0.18776461      -0.92913075       0.49081211
I       15.82315186      19.90089480      11.21548130       0.03489446       0.06433333      -0.13656476      -0.30544133       0.37739823       0.26945283
I        6.59902175       0.23951961       8.95021991       0.01878770      -0.23830263      -0.23454186      -3.16189445      -0.96154989      -0.23698937
I       14.31532506      14.80930947      11.13711436       0.01940758      -0.28756750      -0.08328443      -0.82483855      -0.51478868      -2.36556952
Cs       7.55067840      13.65746993      15.97849284      -0.01551986      -0.16377195      -0.03278953      -0.54955277      -1.13822158       1.32731713
Cs      13.52645717       0.88972725      13.44058271       0.08874178       0.23777993       0.07850040       0.01761249       1.93472782      -0.68954979
Cs       4.87456214      18.76779853      16.01790731      -0.04951625       0.08177150       0.11704562      -0.38578279       1.29854508      -0.43831255
Cs      16.19670025      16.80194710      13.59875536       0.22921959       0.11803144       0.09448501       2.51135568       1.93295647      -0.97314251
Cs       7.64671060      13.42060739       1.58247570      -0.12079909       0.10310719      -0.01256206       0.42969501      -1.12082075       2.24430613
Cs      13.37952579       0.96591831      18.35467478       0.13993674       0.14652668       0.11126085      -0.25103232      -0.34013797       2.92700278
Cs       4.75632087      18.95812905       1.72458311      -0.16938884      -0.12978684      -0.25890737      -0.33811612      -2.66957100       1.39877263
Cs      16.46728280      17.04757219      18.49361631       0.02416231      -0.10178632      -0.14213684       0.03116786       0.04483806      -0.46388909
Pb       2.75866431      14.52310169      13.70366530       0.07839774      -0.06761950      -0.07454864      -2.75559153      -1.60938912       0.70658295
Pb      18.33096840       0.51432922      15.91182494      -0.08600572      -0.28400327       0.20194556       2.25176790       1.00438417       0.59800378
Pb       9.49874674      19.47526703      13.46930699      -0.03855240      -0.04120330       0.19053053       1.21552090      -1.11015137      -1.62380588
Pb      11.76932832      16.02513446      15.71769987      -0.12402949       0.08353954       0.22035567       2.12686147      -2.74053232      -2.35381965
Pb       2.72785022      14.49117873      18.56074258       0.22409376       0.09110358       0.06686836      -1.47437251      -0.77489730      -1.72644036
Pb      18.26610020       0.49506195       1.37945287      -0.02301705      -0.15603547       0.04021095      -2.99580785       1.03006792      -0.55489298
Pb       9.46845237      19.43215695      18.40270239      -0.03428526       0.15810850      -0.14330994       1.94071158       0.20199813      -2.18396713
Pb      11.54834612      16.21168229       1.36509334       0.03563952      -0.15248726       0.10815835      -1.33576923      -0.93825272      -2.57498509
I        1.73322891      16.34766351      16.07154083      -0.10095147       0.09841472       0.09085244      -1.64250192       0.85268418       1.96575701
I        1.58263383      19.88793935      13.65653335       0.13185746      -0.19821268      -0.01509108       1.78643237      -1.39560390       0.31115198
I       10.57753889       0.16974790      15.93163865      -0.23996864       0.09882303       0.08525006       1.60421945      -2.33330948       0.92718360
I       10.79410042      14.07769020      13.60220740      -0.18001999       0.08658679      -0.39074882       0.71261808       1.47414840      -2.25692004
I       17.52097001      13.02007505      13.56301114      -0.01517526      -0.07122809      -0.00233103       2.38813420       1.04859861      -1.76536530
I        3.51361870       1.94948456      16.10749763       0.02882577      -0.01566172       0.17527667       1.07639890       0.11529169      -0.11673959
I       12.61325820      18.32664062      13.44151884      -0.02885149      -0.35454493       0.04912840      -1.31404735       1.76436694       0.21643689
I        8.74119291      17.50445022      15.98264817      -0.26722156      -0.12733506      -0.10687098       0.03039370       1.68439556      -2.55714062
I        5.57419507      15.91494351      13.44703772      -0.07012718      -0.10355287       0.14076058       1.32308257       1.02383872      -0.41574664
I       15.81807847      19.88389149      16.00878630       0.08905902       0.09496787      -0.02711886       1.57580435      -1.52206876      -0.40294139
I        6.56743832       0.01118617      13.51826397       0.08558146       0.12788139       0.21876084       0.88553384      -0.47385013      -2.49212470
I       14.32441516      14.41261456      16.02655654       0.26768656       0.06117158      -0.00544511       1.53540439      -2.19710574       1.13919412
I        1.50793950      16.36288659       1.80532863       0.06778866      -0.04440870      -0.30479199      -1.75982985      -0.43921533      -0.81011376
I        1.75674153      19.61964079      18.55450974      -0.06053238       0.33548946      -0.15931266       0.23542945      -2.28279669       0.82797888
I       10.39865463       0.15541758       1.48343401       0.08466578       0.27110567      -0.04849846       0.64867742       0.96908200      -1.68575548
I       10.52199095      14.32980061      18.35483660       0.12761943      -0.03078961      -0.08896272       1.14871381      -3.15486611       1.07848369
I       17.48644136      13.03832659      18.33096562       0.02097691       0.01476371       0.05996596      -0.61886787       0.76436909      -0.93304333
I        3.50814573       1.91350896       1.66672940      -0.13772618       0.05562185      -0.12748172       0.66506296       0.64789051      -0.10681859
I       12.48417994      18.06438956      18.17941007       0.24356224       0.12732290       0.26963501       0.08128265      -0.05073700      -0.03000750
I        8.43541112      17.36973585       1.47818826       0.01456441       0.10797603       0.01567068       0.73175476      -0.30735856       1.16799863
I        5.62678202      15.79548097      18.48448278      -0.29378079       0.00387101       0.06063689      -0.18776461      -0.92913075       0.49081211
I       15.76788080      19.89141283       1.55905284       0.03489446       0.06433333      -0.13656476      -0.30544133       0.37739823       0.26945283
I        6.65429281       0.24900158      18.60664837       0.01878770      -0.23830263      -0.23454186      -3.16189445      -0.96154989      -0.23698937
I       14.26005400      14.79982750       1.48068590       0.01940758      -0.28756750      -0.08328443      -0.82483855      -0.51478868      -2.36556952
Cs      25.27647955       2.95401115       6.20863226      -0.01551986      -0.16377195      -0.03278953      -0.54955277      -1.13822158       1.32731713
Cs      31.47805431      11.19582363       3.65541523       0.08874178       0.23777993       0.07850040       0.01761249       1.93472782      -0.68954979
Cs      22.60036329       8.06433975       6.24804673      -0.04951625       0.08177150       0.11704562      -0.38578279       1.29854508      -0.43831255
Cs      33.92250140       6.09848832       3.82889478       0.22921959       0.11803144       0.09448501       2.51135568       1.93295647      -0.97314251
Cs      25.48305388       2.73611255      11.12547204      -0.12079909       0.10310719      -0.01256206       0.42969501      -1.12082075       2.24430613
Cs      31.33112293      11.27201469       8.56950730       0.13993674       0.14652668       0.11126085      -0.25103232      -0.34013797       2.92700278
Cs      22.59266415       8.27363421      11.26757945      -0.16938884      -0.12978684      -0.25890737      -0.33811612      -2.66957100       1.39877263
Cs      34.19308395       6.34411341       8.72375573       0.02416231      -0.10178632      -0.14213684       0.03116786       0.04483806      -0.46388909
Pb      20.48446546       3.81964291       3.93380472       0.07839774      -0.06761950      -0.07454864      -2.75559153      -1.60938912       0.70658295
Pb       0.49462512      11.19882406       6.36882860      -0.08600572      -0.28400327       0.20194556       2.25176790       1.00438417       0.59800378
Pb      27.22454789       8.77180825       3.69944641      -0.03855240      -0.04120330       0.19053053       1.21552090      -1.11015137      -1.62380588
Pb      29.49512947       5.32167568       5.94783929      -0.12402949       0.08353954       0.22035567       2.12686147      -2.74053232      -2.35381965
Pb      20.45365137       3.78771995       8.79088200       0.22409376       0.09110358       0.06686836      -1.47437251      -0.77489730      -1.72644036
Pb       0.54029905      11.19852073      11.14931345      -0.02301705      -0.15603547       0.04021095      -2.99580785       1.03006792      -0.55489298
Pb      27.19425352       8.72869817       8.63284181      -0.03428526       0.15810850      -0.14330994       1.94071158       0.20199813      -2.18396713
Pb      29.38468940       5.52718745      10.90808968       0.03563952      -0.15248726       0.10815835      -1.33576923      -0.93825272      -2.57498509
I       19.45903006       5.64420473       6.30168025      -0.10095147       0.09841472       0.09085244      -1.64250192       0.85268418       1.96575701
I       19.30843498       9.18448057       3.88667277       0.13185746      -0.19821268      -0.01509108       1.78643237      -1.39560390       0.31115198
I       28.52913603      10.47584428       6.14647117      -0.23996864       0.09882303       0.08525006       1.60421945      -2.33330948       0.92718360
I       28.51990157       3.37423142       3.83234682      -0.18001999       0.08658679      -0.39074882       0.71261808       1.47414840      -2.25692004
I       35.24677116       2.31661627       3.79315056      -0.01517526      -0.07122809      -0.00233103       2.38813420       1.04859861      -1.76536530
I       21.46521584      12.25558094       6.32233015       0.02882577      -0.01566172       0.17527667       1.07639890       0.11529169      -0.11673959
I       30.33905935       7.62318184       3.67165826      -0.02885149      -0.35454493       0.04912840      -1.31404735       1.76436694       0.21643689
I       26.46699406       6.80099144       6.21278759      -0.26722156      -0.12733506      -0.10687098       0.03039370       1.68439556      -2.55714062
I       23.29999622       5.21148473       3.67717714      -0.07012718      -0.10355287       0.14076058       1.32308257       1.02383872      -0.41574664
I       33.54387962       9.18043271       6.23892572       0.08905902       0.09496787      -0.02711886       1.57580435      -1.52206876      -0.40294139
I       24.51903546      10.31728255       3.73309649       0.08558146       0.12788139       0.21876084       0.88553384      -0.47385013      -2.49212470
I       32.05021631       3.70915578       6.25669596       0.26768656       0.06117158      -0.00544511       1.53540439      -2.19710574       1.13919412
I       19.34428278       5.67839175      11.34832497       0.06778866      -0.04440870      -0.30479199      -1.75982985      -0.43921533      -0.81011376
I       19.48254268       8.91618201       8.78464916      -0.06053238       0.33548946      -0.15931266       0.23542945      -2.28279669       0.82797888