320
Lattice="31.392636507215773 -0.04481615214523286 0.09492011689125937 0.1392903615087138 28.887165468702893 0.25788863917263216 -0.2799812260619887 -0.14238296324623026 16.953981605175922" Properties=species:S:1:pos:R:3:forces:R:3:momenta:R:3 energy=-980.9612019541579 stress="0.0 0.0 0.0 0.0 0.0 0.0 0.0 0.0 0.0" pbc="T T T"
Cs       1.17869167       3.70105658       3.50030344       0.09345550       0.04223794       0.04495573       0.35686098       1.30903784       0.01272733
Cs       6.12885823       6.61906340       7.88285953      -0.16933640       0.10624601       0.00135788      -2.27458520      -0.98024890      -1.55909603
Cs       1.15713561      11.11281128      16.60217714       0.06604758      -0.04783977      -0.01579050       0.55235805       0.00818921       1.32794967
Cs       5.14657279      13.49882988       3.87943062       0.08170012       0.09817370      -0.01171410       0.32802656       0.72470105       0.38880049
Cs       8.86301264       3.45956425       3.74243792      -0.01438054       0.15326136      -0.03154074       1.43859235       0.23075509       1.10230118
Cs      12.74918324       6.23465453       8.01232209      -0.04566323       0.06862910       0.02018938      -1.31886929      -0.71309100       1.43178317
Cs       9.42100298      10.97756122      16.64592256      -0.02691606      -0.02079647      -0.06290581       0.79237411      -1.66414637      -1.71978380
Cs      13.35659704      13.67518196       3.91120651      -0.05959600       0.02754724      -0.11596645      -1.88095881       3.75203308      -2.89270191
Pb       3.08060877      16.08572555       8.16454942      -0.13317121      -0.01141912      -0.10479711       2.61281809       0.64599784      -4.38674621
Pb       7.11034442      16.14105343       7.91677176      -0.27255594      -0.17598168       0.31767010      -1.22844588       2.21109374       1.40081071
Pb       3.86626440       8.78741417       3.43757766       0.28272093       0.17285437       0.12705300      -0.42148553      -0.42248825       3.64176520
Pb       0.09876799       8.60224402       3.74605540       0.06440031      -0.22519879      -0.23899162      -3.61697281      -1.23315035       1.26702435
Pb      10.87773465      15.97705221       7.97091235      -0.02715496      -0.21981922       0.04519479      -0.70239720      -0.76938591      -0.00081934
Pb      14.75527764      15.94663914       7.96142812      -0.16318999       0.05660062      -0.04840845       1.03678201      -0.50313827      -0.76380961
Pb      11.89983751       8.93244048       3.83241600      -0.31487642      -0.32391799      -0.00139557      -1.04486971       1.82284874      -2.51246846
Pb       7.85484454       9.15776956       3.48135277       0.13924069      -0.21118282       0.03520751      -0.44898909      -1.19286725      -2.04664873
I        4.67423856       2.90901678       1.73028117       0.12111211       0.03477695       0.05486814       1.15863186      -1.12088202       0.65184770
I        2.21253010       7.39321988       1.32079869      -0.27531683       0.04893475      -0.00584401       0.51800138       0.54361028       1.24678973
I        4.75940161       3.31711479       5.84584029      -0.12691836       0.05389098      -0.15017569      -0.32907660      -1.85845357       0.19585434
I        2.38337814       7.25659500       5.74290715      -0.17537367      -0.00696225       0.07265985      -4.37529805       1.21103406       0.85376215
I        6.13132829       6.53520987       3.26270418      -0.00252673      -0.12308450       0.00160795       2.82479290       0.65773748      -0.19900332
I        0.72941968       4.11325018       8.08939853      -0.21079487      -0.12206418       0.03075726      -1.93954426      -1.99979091       1.33346776
I        5.93198727      10.12609812       5.72407487      -0.09705791       0.21239908       0.17626271      -1.45373064       0.90928764       0.31312550
I        1.03716268      14.95383068       5.82438103       0.08761995      -0.19095748      -0.40204729       0.38366910       0.13301583      -1.34281105
I        5.79980347      10.48437252       1.32800883       0.14208527      -0.00172762       0.17102797      -0.94529203      -0.28524111       0.13480922
I        0.98550111      14.88276349       1.56818293      -0.14692614      -0.02238072      -0.03176183       1.66566668       0.71955253       0.69368241
I        4.89907700      13.58840992       8.11613389       0.10700580      -0.15384556      -0.06153721       0.26336018      -1.53203081       1.24586209
I        1.80043107      11.39570265       3.53468975       0.05413012      -0.14253566       0.06195000       0.53640571      -0.94511075      -0.70040490
I       12.46585010       2.75753645       1.73211866       0.07483372      -0.01181975      -0.10032588       0.44764534       0.63942577       1.16851363
I       10.03133968       7.69892327       1.53626348       0.01014225      -0.03649867      -0.16805510      -0.77212108      -0.66942054      -1.56261664
I       12.31480465       2.84936297       5.73246973       0.05484470       0.13466444      -0.24213052       2.38235627       1.37793145      -0.66670931
I        9.56435460       7.55099884       5.83461948       0.12032611       0.16332849      -0.28517412      -0.63584268       1.58298604       0.35893689
I       13.83692460       6.16272189       3.73116905      -0.20458586      -0.03307100      -0.03765797      -0.16957429       1.34745899      -2.58666316
I        8.87445256       4.08688994       8.23341565       0.13529917      -0.12547792      -0.18244576       2.01460755       1.13564925      -0.85241126
I       14.00741999       9.78424181       6.02390538      -0.04519407       0.17102650       0.14543370       0.14270849       1.08832815       0.41358828
I        8.67584124      14.81616187       5.65456002       0.13174491       0.08331522       0.07946364       0.30918661       0.82809547       1.56416228
I       13.80802902      10.15769733       1.46499371      -0.01506611       0.00032817       0.14162942       1.34797174       1.38323903       0.10816337
I        8.98169478      14.61826913       1.77113203      -0.28322523       0.05092001      -0.23461275      -1.87437140      -1.25205482      -0.81341730
I       12.71874127      13.30413482       7.78953495       0.08147160       0.27302684      -0.01520700      -0.61750958       0.33690856       0.64591751
I       10.11231342      11.57754563       3.94526090       0.08556400      -0.15316610      -0.04574791       2.49191772      -0.90654132       0.89991166
Cs       1.46063652       4.09991553      12.18976864      -0.01053580      -0.05668438      -0.00306187       0.13482920      -0.51134122       1.78880818
Cs       5.38006456       6.73422727      16.29268033       0.05813333      -0.12525127      -0.02497080       0.86365072       1.57172685       0.87693516
Cs       1.36862080      11.05357481       7.68748702       0.21310490       0.12461337       0.07275285      -1.06804512       0.82706615      -1.08835224
Cs       5.13549846      13.69264142      12.05500134       0.06924804       0.01785836      -0.03117357       1.03679292      -0.49286413      -0.12554155
Cs       8.96247192       3.79648662      12.03671230      -0.01366779       0.06265184       0.02549300      -0.84906273       0.92221111      -0.25631874
Cs      12.96551695       6.44164814      16.45273952       0.05366660      -0.08005514       0.01779989       0.37686264      -0.03741238      -0.89904741
Cs       9.40724582      11.09959231       7.71842925      -0.04542033      -0.00381331       0.12367531       0.72512477       1.54375659       1.17574318
Cs      12.90865892      13.76487461      12.35803341       0.06589811      -0.01665880      -0.14315303       2.86270239      -2.52171391       1.59495718
Pb       2.49809634      16.09696200      16.32601357       0.25439275       0.18187685      -0.05127749       1.30953463       0.29018887      -3.00027097
Pb       6.48910324      15.66308991      16.53259772       0.22320384       0.27217305       0.06727066      -0.08561744       1.10778679      -0.23474029
Pb       3.88861744       8.89055074      12.11721664       0.32103533      -0.04614296      -0.01593707      -1.18805047      -1.76840844       1.53896714
Pb      -0.06364210       8.72218553      12.13488082       0.43826478      -0.09998151      -0.24114715      -0.84917747       0.13864789      -0.60798301
Pb      10.43222302      15.92114921      16.36356272       0.16563807       0.13542613      -0.07357782      -3.01548376       0.65127712      -0.25119931
Pb      14.45798717      15.81621162      16.36213821      -0.24849883       0.36478339      -0.43043916      -0.60509038       2.76828841       1.07186757
Pb      11.98838336       8.85670469      12.24482678      -0.52651387      -0.26641137      -0.31036862       0.02879767      -0.03451310      -0.73076139
Pb       7.76075757       8.88819004      12.33691817       0.26380010      -0.11649617      -0.37940011       1.95896292       0.72809651       0.64112478
I        4.95633530       3.04824528      10.07273425      -0.24427069      -0.32083516      -0.05729903      -0.23335646      -1.86480219      -1.95606168
I        2.18483498       7.62965794       9.84741129      -0.10482614      -0.00659668      -0.01317583       1.70265757      -2.69828305       0.45644796
I        4.61675352       2.89740060      14.27220213      -0.09527378      -0.07169588       0.06776374      -0.55945910       1.34148379       0.45034667
I        2.04471611       7.45844082      14.27532363       0.02507141      -0.10698427       0.01207693      -1.12458141       0.61529353      -0.67901329
I        5.86996778       6.18060845      11.87635563       0.14106670       0.49550112       0.18537451       0.61936003      -0.30809754       3.44304404
I        0.41847562       4.03581645      16.27439561       0.07665226      -0.07261373       0.06549817      -1.11578190      -1.01124444       0.37359040
I        5.95075238      10.04503466      14.59180619      -0.07054345      -0.04380448      -0.26493983       2.01156421       0.55643132      -1.35907538
I        0.46780647      15.34727091      13.90234263       0.02375418       0.02003364       0.19313749      -0.98540925       0.60510670       0.61526455
I        6.01064031      10.29408667       9.86616155       0.01029866      -0.18982678       0.43539822       0.93576287       1.12336302       1.45971312
I        0.79775411      14.51264930       9.90335231       0.03931502      -0.07333759       0.15468116      -0.00356126      -2.28582020       2.67348280
I        4.16994719      13.37337503      15.86591402      -0.02141117       0.26184659       0.08678261       0.52649127      -1.95415248       1.60876626
I        1.91877115      11.31213907      12.43480646      -0.07150564       0.19024051       0.01494825      -1.70231878       1.06039931       0.10419633
I       12.42894876       2.78184584      10.07347053      -0.01463544      -0.02853451       0.07543285       1.40559954       1.09133540       1.39862018
I        9.78021309       7.82711201       9.86672568       0.00475175       0.08895229       0.28648216       1.58431395      -1.83116282       0.31005514
I       12.14963351       2.99235555      14.27589981      -0.06735279       0.01287318      -0.13648586      -1.44521880       3.17927173      -2.29208448
I        9.90178877       7.45532487      14.31905793      -0.12926083      -0.15203420       0.04968789       2.10701107      -0.74181807      -0.32068087
I       13.74080593       6.06469453      12.16761131       0.15699705      -0.02643746      -0.01791439       0.20808161      -1.70796998      -0.01679551
I        8.31174103       3.95555446      16.65681853       0.30601744       0.08904685       0.02035298      -1.39682774       1.21398687       0.06707528
I       13.90145234       9.86298484      14.33434607       0.09265040       0.18539571       0.39005438      -0.08812340      -0.13067985      -0.00727984
I        8.61513797      14.68419339      14.34770616      -0.38180825      -0.24924083      -0.44463197       0.51260097      -0.63724799      -0.45797304
I       13.92422125      10.03689655       9.99187356       0.01269703       0.00866452       0.05748896      -0.99127427      -0.15690692      -0.80440169
I        8.86425968      14.50520101      10.20963485      -0.02351052       0.17688044      -0.24201035       0.41380913      -2.65751018       0.40373224
I       12.40645452      13.43671705      15.78238974       0.16445107      -0.22966819       0.23004117      -1.33606014      -1.51438544       0.10810054
I       10.06738490      11.31381758      12.72543593      -0.22435858      -0.06648614      -0.09685686      -0.75041290      -0.34311867       0.48835165
Cs       1.77001844      18.23477485       3.80646310      -0.09757269       0.14715144       0.03007290      -1.06245256       1.76749362       0.14425075
Cs       5.83687853      20.82560012       7.95714918      -0.01495454       0.03438007       0.10807323       2.03766384       0.58357344      -1.19363278
Cs       1.16908762      25.49961681      16.40358034       0.07970888       0.01404160       0.09392026       1.31439802      -0.94651630      -0.16894856
Cs       5.01181990      28.45508015       3.89610696       0.16632938       0.02154650      -0.03693962      -2.12772953       0.03832008       0.27001397
Cs       9.74230167      18.51700515       3.59030756      -0.12070107      -0.02103713      -0.00111220      -0.75330326       0.89487265      -0.32163003
Cs      13.45061355      20.78026219       7.98326040      -0.05764687       0.10095290      -0.01285832       0.59311588       0.60024210       1.91660638
Cs       9.62456221      24.97822240      16.43936544       0.06655988       0.19715812       0.08515554       0.53318002      -1.54149029      -0.93880065
Cs      13.41512880      28.14197758       3.81872357      -0.00633390      -0.04829343       0.01166435      -2.02902911      -0.24068056       1.27276705
Pb       2.82002527       1.68796115       7.88419954       0.38743778       0.05276797       0.03912040       0.11032499       1.90595048      -0.28762761
Pb       6.79610465       1.68264393       7.82800054      -0.26906655      -0.17559719      -0.01583869      -0.93005837       0.42668923       1.70438546
Pb       4.40939754      23.38488829       3.97709199      -0.23932417      -0.13102814      -0.05165816       0.57538714       1.73010942      -0.36174259
Pb       0.47707950      23.08863903       3.98000266      -0.12806999      -0.07936771      -0.19592002      -0.79629070       1.40540234       0.46699266
Pb      10.66088735       1.27955103       7.82017245      -0.24558957      -0.07101440       0.18620344       2.52160616       1.76370369      -0.70886902
Pb      14.51849591       1.82098763       7.82564682      -0.14000215      -0.37044681      -0.00617670       0.84581742       0.76028574      -1.09734964
Pb      12.05388094      23.18417663       3.58721956       0.15555587      -0.07182113       0.23950939       1.30407566      -0.53860144       0.94392362
Pb       8.17790450      23.17016868       3.84112799       0.22489881       0.05268901       0.02163259       2.15912966      -0.76556984       0.94625876
I        4.90105598      17.13047397       1.78661827      -0.15120683      -0.05652707      -0.03916048       0.48799674      -1.21215947       0.52608781
I        2.49816516      22.16695791       1.61778217      -0.01669291       0.08308225       0.09556103       0.52370191      -0.13574609      -0.61316710
I        4.94947019      17.32564163       5.81578656       0.04495430       0.06389976       0.04262324       1.86005746       1.51191828       0.69975456
I        2.56085500      21.89029585       6.16033259      -0.20091532      -0.13364640      -0.05936189       0.68247394      -0.13450726       1.58964669
I        6.30249779      20.69072429       3.70500995      -0.09836649      -0.15348427       0.02579022      -2.37945022      -1.03041615      -0.63549194
I        1.03300964      18.51319354       8.44204767      -0.27416364       0.15785996      -0.15309976      -3.65695637      -0.60288036       0.89543648
I        6.46509473      24.19496112       6.32336674      -0.03353680       0.15829290       0.06549376       1.20324619       2.76895786       1.58832579
I        0.90710121       0.45317155       5.70178824      -0.24788442       0.07180083       0.05430143      -0.88640537       2.16616745      -1.88086124
I        6.24774032      24.49173750       1.76762515       0.04959994       0.31121517      -0.26251126      -0.65796669      -0.80259991      -1.34723831
I        0.85282619       0.15320059       1.60751021       0.15851233      -0.02940945       0.10147657      -0.36966333      -0.86989121      -0.90565220
I        4.83925671      27.97394297       7.66867523      -0.03504205       0.18764558       0.09398752      -1.40264173      -0.95879361       3.56008232
I        2.38607606      25.90184283       4.36764234      -0.20446989      -0.37741381      -0.09302784      -0.31751084       2.43135278       1.35923161
I       12.71652428      17.17734030       1.54615998       0.26697272       0.10455788       0.39299395      -1.45557513      -2.10882406       0.25706865
I       10.05630544      21.92169722       1.52151761       0.05873919      -0.11571249      -0.23185628       1.61171238       1.18170081       1.34528168
I       12.63965719      17.55964583       5.85194600       0.11477283      -0.20845634       0.06033192       0.04250487      -0.97322788       0.47084466
I       10.34500931      21.61223046       5.72611484      -0.06372122       0.00622646       0.14724792      -0.91910356       0.65307893       0.05000217
I       13.91296926      20.40966272       3.55398135       0.21686182       0.37138015      -0.02609422       0.46347130       1.19203840       0.75684280
I        9.09887804      18.63937980       8.16677413      -0.13844919      -0.04780127       0.02124165       1.44727991      -1.65440940       0.66117835
I       14.16192189      24.56993245       5.75991761       0.07756827      -0.18936201       0.01563615       0.21756888      -1.23401778       2.07679195
I        8.55688821       0.09972814       5.54658862       0.07986119       0.12047925       0.15791767      -0.06318486       0.41591394       2.27117630
I       14.04234965      24.52418435       1.49056921       0.11247768       0.03487939      -0.17085719      -0.96935313      -2.27731793      -2.20905661
I        8.77436786      -0.06543029       1.59265712      -0.14281024       0.16532005      -0.31183430       1.07894890       2.44955245       1.45009911
I       12.87194144      27.73634368       8.14393897       0.01998424       0.23159561      -0.06894098      -0.06988480      -1.06302969      -0.53770929
I       10.33355739      25.73939784       3.73590672      -0.11386202      -0.01557658       0.07315498      -0.61240857       1.62215810       2.00554630
Cs       1.57591645      18.60766712      12.00315295       0.19945206      -0.12401278       0.05255100       0.22960116      -0.27844964      -0.57071000
Cs       5.16930371      20.57694419      16.61221695       0.10166868       0.06277509      -0.01646440      -0.65291050       3.01675463       4.12013412
Cs       1.74243645      25.44499781       7.95397596       0.04494645       0.08063318       0.07955961       1.87622719       1.03532959       1.41467522
Cs       5.11093694      28.08003672      12.67931613       0.03042617       0.15267506      -0.14128725      -0.52714608      -1.56770014      -0.75616489
Cs       9.02821738      18.11328660      12.32744849      -0.02066459       0.06243905      -0.05516504      -0.59079624       0.03832657      -0.76741841
Cs      13.61933379      20.97131946      16.35202186      -0.18379209      -0.01999707       0.01730070       0.86702625      -0.86877323      -0.29471185
Cs       9.76179680      25.59843561       8.08173287      -0.06906751       0.00003529      -0.01036505       0.36296713      -2.19500444       0.21679702
Cs      13.56392016      28.05366208      12.10435982      -0.16407313      -0.06837468      -0.00456688       0.25006406      -0.38879437      -0.58808486
Pb       2.62425277       1.43985983      16.42500169       0.01524039       0.17292678      -0.06379022      -0.33605843      -0.69880699       0.97995176
Pb       6.55476661       1.52595802      16.43040361      -0.14905511      -0.30235382       0.22984541       1.03028458       1.79214817       1.52905046
Pb       4.27193457      23.45228639      12.25547576      -0.25960460      -0.22318856       0.16931612      -0.84822307      -0.73405395       1.62996808
Pb       0.26394170      23.16062957      12.31520397       0.01893071      -0.13312353       0.11361849      -1.90264989      -1.19339620       0.62346497
Pb      10.42973843       1.27284887      16.39303776      -0.18658735       0.13864304       0.07058491       2.37147292       1.38098685       0.12005774
Pb      14.18157267       1.55229151      16.16463148       0.28382082       0.09146024       0.28526062       2.22623193      -2.63441003      -0.71731416
Pb      12.01090413      23.10134752      12.24403937      -0.20929593       0.24207885      -0.13790949      -0.56970275       0.49555796       1.66110761
Pb       8.17488670      23.50861710      12.40241864       0.07182575      -0.35348952      -0.43743611       0.56102988      -1.89898067      -0.62284835
I        4.96926170      17.43057021      10.25326066       0.13881776      -0.01275562       0.03276432      -0.30268680      -0.02154944       0.85135622
I        2.29620167      22.17500349      10.09590105       0.09386461      -0.06039345      -0.20136334       0.59568625       1.60849922       0.48183762
I        4.76746397      17.51139665      14.37229979      -0.02740113      -0.07723884       0.09970835       0.49393998      -1.43163929      -0.53179767
I        2.42209780      21.75460439      14.30583488      -0.11812716      -0.05616187       0.18975029       1.27083165      -1.25012052       0.79299638
I        6.14804174      20.91650667      12.07279516       0.14294651       0.00610185      -0.00946823       0.47945678      -0.24655702       0.15540479
I        0.49735354      18.86526443      16.98532169       0.13153333      -0.32898740      -0.11922760      -1.39853334      -0.70257831       1.07465021
I        6.28921600      24.45415834      14.58311590      -0.05801951       0.15783309       0.32254384       2.49146914      -1.08428014       0.30147328
I        0.69244950       0.26944670      14.23771531      -0.03752119      -0.06525661      -0.29177196      -0.42461907       2.70478021       2.12139745
I        6.07387443      25.00069083      10.37562825       0.27740315       0.09119161      -0.19216094       0.37692048       1.07405194      -1.64092821
I        0.84017202       0.10878041       9.90663533       0.03827291      -0.06995593       0.29387704      -0.07729137      -0.11282300       1.50047404
I        4.55925212      27.73177501      16.63216058      -0.03576434       0.08709536       0.01332440       0.34800449      -1.40260438       0.33473707
I        1.97819254      25.79919740      12.79740479       0.09098954       0.10992701      -0.10190584       2.80260029      -3.07493670       2.03119625
I       12.73329025      17.12375172      10.25323617       0.01998443      -0.03906486      -0.22337898       0.32198085       1.01975386      -0.21210021
I       10.12619888      22.40546402       9.74337188      -0.23110730      -0.08794375       0.19271129       0.19324900      -0.55222399      -1.15467437
I       12.32405500      17.19672341      14.01754808       0.17903968      -0.12872457       0.52588020      -1.50182435      -1.40334934       0.25614494
I       10.14934973      21.65387132      14.36036676      -0.19445295      -0.00306270       0.02158660      -0.62666463      -0.44154872      -0.76630548
I       13.83478381      20.44880947      12.15513532       0.01744057       0.06067010      -0.08229172      -0.12023018       0.42540948       1.28181364
I        8.40216111      18.37562247      16.63204586      -0.19226362      -0.11067963      -0.05606499       0.93059744      -1.02401373       0.83515144
I       14.01536314      24.31930941      14.35908553       0.17398709       0.00165313       0.03415158       0.19849766       0.41493469       0.74990667
I        8.27405153       0.45901764      14.04211154       0.06455412      -0.14340005      -0.03494753       0.72297361       0.75979813       0.56696392
I       13.80373426      24.52244389      10.03168023       0.13504847      -0.04971753      -0.19333934       1.86592236      -1.41051360       1.17253588
I        8.36955104       0.14410375       9.98052523       0.18394136      -0.14879580       0.14552509      -0.84858701      -1.42333912       0.82045076
I       12.72672585      27.75973215      16.29760696      -0.36476740      -0.10875028      -0.00635542      -1.65986961      -0.02370095       1.70529876
I       10.20708076      25.93524008      12.41904579       0.14563673      -0.19995167       0.12196360      -1.23672095      -1.38068310      -0.20901400
Cs      17.21545291       4.10338894       3.22651019       0.01439806      -0.02180760       0.04912868      -0.61889133      -0.86884397       3.37778677
Cs      21.35138419       6.57156210       8.16226091      -0.04376081      -0.00444621      -0.05170034      -2.00807818       1.17830413      -0.43590665
Cs      17.11741236      11.16795920      16.55714022      -0.02850012      -0.14575822      -0.02630506       1.14489899      -0.60089534       0.50259399
Cs      20.37394180      13.98771367       3.64685927       0.09649826       0.01041742       0.00967104       1.20110102       1.84303597       0.51345493
Cs      24.86420455       4.15437149       3.69433451       0.04971164      -0.14619667      -0.01772666       0.19068811      -0.57221372      -1.16156704
Cs      29.23326449       6.37653243       8.45979654      -0.23941199       0.05533575      -0.16763019       0.77039595       2.56948503       1.18429908
Cs      25.29361241      10.81344090      16.78570732      -0.12287652       0.00749965      -0.04693258      -1.36135473      -0.36502265       0.53090389
Cs      29.19623729      13.42708847       3.65949322       0.03545058       0.03010939       0.04968633      -0.76904702      -1.09616991      -2.94118342
Pb      18.66222278      15.98089064       7.84197274      -0.04937491      -0.31679904       0.33672223       0.61648796       0.37459118       1.73690006
Pb      22.48479950      15.75663731       8.05507061      -0.00273468       0.08542638       0.24184426      -0.39911969       3.00838592      -0.96889508
Pb      19.73078173       8.80743506       3.79954488       0.12224430      -0.10221114       0.05364674      -1.10149160       4.85763232      -0.63604304
Pb      15.73672175       8.60532589       3.63170644       0.18929256      -0.02956442       0.12451271      -1.96066386       0.80084465       1.10097052
Pb      26.40550497      15.71662711       7.95575512      -0.03268741       0.23988521       0.06930058       3.13839877      -1.08685594      -4.60572919
Pb      30.30888220      15.94493703       7.95071377       0.25069809       0.21241773       0.09643857      -1.72206374       1.11426587      -0.25884442
Pb      27.42070204       8.62137253       3.73113854       0.29231467      -0.10492438       0.12346336      -0.07853729       0.09918272       2.00594411
Pb      23.62676702       8.74931725       3.63205893      -0.38094384       0.14059377       0.26420997       2.28334727       0.56376091       1.91144333
I       20.63176455       2.76866427       1.54118078      -0.16273134      -0.05414384       0.08009749      -0.67976480      -2.24469812       2.24919997
I       17.87532483       7.16910881       1.70777261       0.09768616       0.09719367      -0.22178972      -1.31437498       0.86300537       0.26736764
I       20.33265947       3.14063872       5.72909499       0.08396208      -0.06993360      -0.03692787       0.15885893       0.04855054       1.16127707
I       17.79644041       7.38676286       5.91225346       0.04024309       0.10664884      -0.03103526       1.50004378      -3.02271902      -0.10761341
I       21.57373338       6.23685237       3.40762772       0.28619495       0.02762441       0.04552072      -0.34758869       1.38506744       0.97050156
I       16.15059609       4.32415903       7.78353693       0.32730119      -0.00630424       0.10461313      -1.61883926       1.86926400       0.52634906
I       21.94320194       9.89648232       6.08115973      -0.17879156      -0.02561900      -0.15272727       1.38536251       1.46475890      -2.63717976
I       16.53721873      14.72351949       5.54159920       0.16355745       0.06172179       0.27891675      -0.60513474       0.50795927       0.57742584
I       21.68400925      10.43284423       1.62107302       0.03746596      -0.18112825       0.14340216       0.05395147      -0.18592515      -0.28876745
I       16.65233819      14.67130818       1.65000149      -0.09310634       0.01507213      -0.08702652       0.49884620      -0.06568306      -0.52437464
I       20.47124114      13.15952259       7.96700357      -0.24042091       0.45516003      -0.00617240      -2.96174882      -0.83650115       0.32409103
I       17.73466719      11.16196476       3.85295463      -0.15325623       0.39362165      -0.02959825       2.23831492       1.33208995       1.87504468
I       28.10443114       2.60892609       1.60759489       0.02528480       0.07698971       0.22876642      -1.92094427       0.64833577       0.67286612
I       25.43160008       7.00979010       1.66857917       0.27863980       0.05233782      -0.07764058      -2.69302987      -1.13140685       0.57544538