320
Lattice="35.78794042575779 -0.37839846603646177 -0.24217113649280456 0.2257959835333163 21.00955516298944 -0.015306901360210465 0.11054213265190213 0.01896394099226511 19.312856914076352" Properties=species:S:1:pos:R:3:forces:R:3:momenta:R:3 energy=-989.5838486667099 stress="0.0 0.0 0.0 0.0 0.0 0.0 0.0 0.0 0.0" pbc="T T T"
Cs       7.40147357       3.51618099       5.71200937      -0.01223895      -0.04660607       0.23100159      -0.88347107      -2.05964547      -0.94428768
Cs      13.43022348      12.31434035       3.61071269       0.12364486      -0.13404922       0.01650039       1.61380370      -1.73859632       1.43798550
Cs       4.44095019       8.80205780       5.79485761       0.05825443       0.10096718       0.21336891       1.61657251       0.27762066       0.13917718
Cs      16.34245922       6.94921272       3.51965493       0.03626714      -0.01196163      -0.12813821      -2.69792337      -0.37947660      -0.78461083
Cs       7.20070409       3.60667583      10.69722436       0.13054590      -0.04658948       0.00430021      -1.78698434       1.61850458       1.28391915
Cs      13.69094373      12.26781676       8.21552147      -0.06799624      -0.13878409       0.06012908       0.66614758       1.19591547      -3.83210252
Cs       4.67122277       9.01842339      10.69537227       0.02065478      -0.29006711       0.03082805       0.69470585      -0.37975223      -0.24231833
Cs      16.33826529       6.85291252       8.21721015       0.00338098      -0.06719455       0.15633624      -2.06142899       0.34641599      -1.59811735
Pb       2.49367428       4.58646007       3.41318267       0.00203687      -0.33192967       0.22979427      -0.92258499      -1.02976928      -0.05579526
Pb      18.54710936      11.38079453       5.85850055      -0.10192481      -0.08694531       0.00639132       0.92753028       3.12350922       1.02139312
Pb       9.38246141       9.33764559       3.55430474      -0.25095381       0.26782799       0.28882783      -1.30523128       2.19353828      -0.27389126
Pb      11.58062458       6.05994079       5.94570609      -0.21590506      -0.00619401       0.18457578       0.03895554      -1.30822750       2.65200625
Pb       2.57894134       4.44088942       8.42722896      -0.05333198      -0.26129911      -0.27079190      -0.75316650      -2.95246563       0.33954341
Pb      18.42208814      11.56415254      10.71063943      -0.02512617      -0.41304703       0.16016384      -1.30018543       3.15644971       3.70812378
Pb       9.55854830       9.30747982       8.29119561      -0.13082747       0.22496271       0.17808764       0.48866410      -0.67495258       0.65322435
Pb      11.75669848       6.09238517      10.93395730      -0.34726701      -0.07608753      -0.19918134      -2.95216121      -0.49622054      -1.37362274
I        1.27760899       6.19155717       5.95382175       0.11546435       0.05308149       0.06690251       2.34447211       4.95004892      -2.03091682
I        1.41251286       9.77887100       3.61663500       0.07113855      -0.07687814      -0.00320992      -2.36382150       1.69588521      -0.57797085
I       10.42172011      11.45181912       5.95478888      -0.00958925      -0.32514584      -0.17841485      -0.30890326       0.27262874       0.87617762
I       10.37017685       4.39356261       3.46385178       0.02753350      -0.19820761      -0.01517399       0.72920186       0.67620164      -0.40605122
I       17.43301747       2.77622036       3.47108193       0.05133515       0.15261774       0.06487920      -0.58252186       0.71242533       1.18094250
I        3.70934570      13.27682351       5.79916636      -0.13640492      -0.18614527       0.24217949      -2.57228960      -1.59972638      -0.55703244
I       12.32332034       8.13772328       3.58255284       0.32710933       0.14485436       0.02723634       0.82512033       0.56693256       0.57655713
I        8.36119361       7.41373093       5.96596458       0.13111888      -0.05546254       0.02290159      -0.50957579      -0.66620667      -0.53431430
I        5.27214541       5.96818471       3.55056448      -0.04157480      -0.07062995      -0.04968490      -1.10080394       0.16437701      -0.69321830
I       15.84867674       9.83200845       5.91223007      -0.15458234       0.17869662      -0.07719361       1.26052179       0.86831125      -0.65846543
I        6.62435702      10.94958340       3.55188111       0.09273115       0.03217934      -0.03533440      -0.19068935      -0.53703280       2.16737905
I       14.25922670       4.62566289       5.68744475       0.12344573      -0.10195762       0.22455055       0.34359691       0.12325526      -2.37005568
I        1.52855879       6.27952515      10.68903245       0.02810529      -0.03987798       0.21206711       1.88060763      -1.74931394      -0.44528377
I        1.71868260       9.90587208       8.27977890      -0.12854882       0.11337078       0.08255965       1.17543145      -0.60825200      -2.32973264
I       10.71912518      11.14346307      10.77196597      -0.10682818       0.12202147      -0.09783529      -1.15013537      -0.93232723       0.39733089
I       10.55306268       4.28703786       8.48671207      -0.05788551      -0.05693963      -0.10518905      -1.79161886       0.66668365      -0.74215069
I       17.35374079       2.76901153       8.28961717       0.03785404       0.07469923      -0.00372423      -0.80363310      -0.29013170      -1.43446530
I        3.71614382      13.15202675      10.87851623      -0.15456402      -0.20532105      -0.30379640       0.81073715       0.42645849      -0.28039837
I       12.66593166       7.98697796       8.34425450      -0.03920253       0.13219358      -0.03728636      -1.29016879       0.07299476       0.20996993
I        8.56142072       7.44139439      10.82753920      -0.02057282      -0.04874041      -0.12093858      -1.95665697      -0.89912109       1.18966382
I        5.32204316       5.79598319       8.13790969      -0.00713541       0.12005171       0.13733390      -1.52646085      -1.99203424      -0.70314113
I       15.74659143       9.89451706      10.62060746       0.06472230       0.12808203       0.14668669      -1.59648361       0.92463899       0.22003628
I        6.81792120      10.85437263       8.42220561       0.02896169       0.09946436      -0.22229205      -1.17961933       0.43987733      -0.86101516
I       14.35483555       4.47327188      10.92618409       0.15646965       0.11088000      -0.09282232       0.17643893      -0.55602218      -0.21233137
Cs       7.45545971       3.65518207      15.67863284      -0.10319010      -0.02045499      -0.11072516       1.14916788       0.83942647      -0.49420669
Cs      13.57896517      12.18314089      13.21747975      -0.00972783      -0.08666469      -0.09931553      -1.37706366      -0.55741902      -0.50205145
Cs       4.64916092       8.56504013      15.60612201       0.02023585       0.18291641      -0.02027198       1.31068114      -0.23967178       0.46397156
Cs      16.45173396       6.99656984      13.25024859      -0.00988197       0.01751217      -0.09726599       0.63284662       1.68304867       1.83249530
Cs       7.13178796       3.62623828       1.13546493       0.08751171      -0.06834678      -0.04164436       4.03446694       1.85582938       0.79635395
Cs      13.61108014      12.28209013      18.05582286       0.01092830       0.03114756      -0.05390831      -0.26462911      -0.25094284      -1.04735739
Cs       4.52369704       8.86253928       1.31450193      -0.11578201       0.01400396      -0.21540116      -0.85033689      -1.60386923       2.25616304
Cs      16.38897854       7.10794002      17.90043055      -0.01606428      -0.10029353       0.15551642      -0.38523884      -1.52099104      -0.65961133
Pb       2.41942389       4.25097967      13.28188398       0.48270445       0.42511519      -0.16664379       1.09215962      -1.77049298      -0.98696314
Pb      18.30862540      11.48837812      15.34815784       0.04582404      -0.12517294       0.40193817      -0.15576916       0.54982176       2.09713113
Pb       9.37319853       9.43886855      13.22318196       0.30907225      -0.03703895       0.05631610      -1.70236140       0.15398712      -1.48591147
Pb      11.63344674       6.03111715      15.56247149      -0.30235120      -0.09545350      -0.01369057      -1.38230674       1.43670969       0.92717458
Pb       2.54051246       4.55090710      17.97236212      -0.06358509       0.06656635      -0.01980650      -0.18381924       1.40531350       4.51096046
Pb      18.27165649      11.43458916       1.04306699       0.13149849       0.01987942      -0.08238785       1.93288597      -2.27277529       0.95367177
Pb       9.46537312       9.39306893      18.24814510      -0.43876948       0.34346152      -0.43501592      -0.25672487      -0.46530114      -0.46489221
Pb      11.35858478       6.22410561       1.12081611       0.30918762      -0.25822098      -0.12817878      -1.61729715       0.12393498      -2.46091135
I        1.41096852       6.36730039      15.41136218       0.00455643      -0.04001979       0.22521396      -0.94695324       0.11997523      -0.55381361
I        1.68792749       9.48899843      13.17630370      -0.13630720       0.29029892      -0.04405135      -0.61143376       0.17992213       0.63771223
I       10.46274399      11.26341908      15.70613998       0.04355238       0.01334772       0.03846174       0.37126205      -2.06213692       1.35164553
I       10.26710639       4.17321266      13.12112879       0.22849316       0.17387929       0.06586035       0.54417092       1.33557009      -1.12728080
I       17.40392890       2.91930565      12.87968273      -0.01390821      -0.02963700       0.26535638       0.32333219      -0.57937112      -0.57374762
I        3.59895354      12.70719211      15.50508448      -0.11604255       0.27674924       0.03867736      -1.01210261       0.06874523       0.06664073
I       12.59591573       8.10234256      13.22917746       0.05573959      -0.02776807       0.20775662       0.20820593       0.71398865       0.22326381
I        8.40480216       7.53896532      15.70835348       0.33068195      -0.11372709       0.05655090       0.36633002       1.64995120       0.10238235
I        5.31346004       5.78903305      13.16751017      -0.40118832      -0.17869020      -0.04308526      -1.30791058      -0.50617908       1.80134712
I       15.54914826       9.98930828      15.67850909       0.04864758      -0.00057511      -0.16865361      -0.09903342       2.44120084      -0.97751574
I        6.80903646      10.92410781      13.26982863      -0.30642543       0.21348329      -0.06971072       0.95720958      -3.30193029       3.28811163
I       14.34036641       4.52661562      15.66091665      -0.04272851       0.14496060      -0.09835392       1.60936465      -0.86619809       1.33237670
I        1.21694019       6.30500984       1.08407055       0.08154454       0.21434711       0.04085092       0.26622120       1.21460114       1.91260765
I        1.70050551       9.77975847      18.04385275       0.05353043      -0.14719090      -0.10819881       0.36362904       0.94833095       0.28856432
I       10.62257221      11.19401890       1.32377775      -0.14023392       0.14196047      -0.25672836       0.70255546      -0.10569140      -1.84530292
I       10.41985991       4.28641464      18.17750024       0.13359081       0.12170151      -0.19529370      -1.55247078      -1.07251770       1.34738444
I       17.34106831       2.83993509      18.04803723       0.11231353      -0.05501508      -0.08855835      -0.61977266       0.26149598      -0.66730619
I        3.25275398      13.11771789       1.30446970       0.40739552      -0.27515298      -0.05002729      -0.01516174       2.35883942       0.06302884
I       12.44938672       8.14266668      17.81647464       0.09132356       0.01869373       0.18480466       0.75823162       1.39200763      -1.27106575
I        8.11045297       7.41465674       1.18628994       0.31375213       0.01479327       0.04795184       0.64546711       0.28326167       1.52163399
I        5.37106598       5.90877641      17.92347272      -0.22257014      -0.07559444       0.19188395      -0.54953467      -1.53591611       0.53953687
I       15.53812653      10.07373392       1.19805704      -0.09985404      -0.14846296      -0.02269646       1.74092801       0.26958718      -0.65104842
I        6.58475475      10.95088231      18.05973429       0.33050967      -0.15854783       0.15906942      -0.31809839      -0.56989044      -0.71819895
I       14.21198341       4.79190388       1.05996567      -0.25484184       0.12000268       0.03077729      -2.13646550      -1.47316692       0.62023714
Cs       7.35187242      14.02795806       5.70897948       0.07074020      -0.09348692       0.11302471      -0.20896159       1.20512495       0.46564567
Cs      13.77733405       1.62517180       3.49597025      -0.26068364       0.03735474       0.05598128       1.74931364      -0.17750243      -1.52672709
Cs       4.65176182      19.40182476       6.14014049       0.04973950       0.13800844      -0.29231437       0.75428232       0.48853816       0.66710304
Cs      16.39476359      17.63415152       3.48194224       0.02512422      -0.11062076       0.01650205      -1.83003894       0.31721831       1.56624162
Cs       7.43557670      13.92122216      10.66341758       0.13992704       0.03523773       0.06052466      -0.03426615      -1.20266380      -1.32829763
Cs      13.59170367       1.54947050       8.43405220      -0.12573125       0.11914765      -0.11606788      -0.85501428       0.30146016       0.32867720
Cs       4.72948148      19.26860811      10.81544530       0.07202150       0.02798995      -0.07953664      -2.71232158       0.91104653       2.29857165
Cs      16.47138089      17.08768567       8.51900904      -0.06696508       0.24967968      -0.16718141      -1.67413045       0.99792452      -0.02300728
Pb       2.64215852      15.21500889       3.53063576      -0.20235583      -0.08066313      -0.01204061       0.15829665       0.15822723       1.80447268
Pb      18.43925467       0.83364681       5.91712849      -0.01871485      -0.09726652       0.03692712      -3.02325129       1.68729705       1.60578953
Pb       9.61997424      20.13731821       3.47167738       0.10467821       0.08822251      -0.00741224       1.44992638      -2.34505819       0.45048138
Pb      11.59564398      16.61383559       5.96784930      -0.10004149       0.14776622      -0.23078568      -0.78941759      -3.12649098       0.78641996
Pb       2.66488118      15.22755121       8.32033436       0.01555676      -0.21944619       0.09726092       1.62862366      -0.69247251       2.65745794
Pb      18.22256062       0.75171730      10.63810491      -0.06024696      -0.12562084       0.07750871       0.37328405       1.47111057      -0.83430650
Pb       9.46322042      19.99921765       8.29445164      -0.13987860       0.16996031      -0.04706365      -0.60320713      -4.06799729       2.03916216
Pb      11.64279499      16.60620527      10.67895912      -0.04358800      -0.28534658      -0.06116548       0.36049999       1.97080959       0.55017960
I        1.22505476      16.93515518       6.03127777       0.24151694      -0.02219513       0.00362346       0.76310798      -0.93928782      -0.31807394
I        1.71063055      20.16782335       3.45222788      -0.06872906       0.03676455      -0.10697988      -0.78028196      -0.23063036      -1.32211799
I       10.37610060       0.93404329       5.99101801       0.19930400       0.07790987      -0.01498529       1.08866446      -0.07996125      -1.62105642
I       10.40371961      14.84021908       3.42038354       0.02854018      -0.05003698       0.22002853       1.65073356       0.97122466      -1.33707688
I       17.47319949      13.48146632       3.52433310      -0.25074368      -0.16209293      -0.01232731       2.25853426      -1.14446049      -0.70900639
I        3.50175684       2.42525996       5.79750851      -0.06278660       0.16528137       0.01575721       1.00079622      -1.78758860       0.69197545
I       12.62162372      18.67224988       3.41424819      -0.03064416      -0.08087574       0.08881396       0.26714020      -1.31392376       1.20163394
I        8.57841959      18.10000967       5.64522889      -0.05831704      -0.07040615       0.26767930       0.88113868       0.06457215      -0.39445631
I        5.29556062      16.62650353       3.47809669       0.23674438       0.06960705      -0.05988837      -0.03385770       1.38875235      -1.85281968
I       15.96295911      20.38450540       6.02989544      -0.24628625      -0.13306454       0.03207948      -2.14181193      -0.78336628       0.61168383
I        6.67327723       0.57618369       3.40677810      -0.24357045      -0.01425987       0.07020904      -1.18332269       0.28838884       0.60671063
I       14.30624165      15.20953713       5.75319845       0.20324243      -0.04042113       0.13994653      -1.27380004      -0.52790886       1.15834622
I        1.50622017      16.97220199      10.86148279       0.22122644      -0.22683403       0.00851503       1.18993749       1.87963345      -0.73110125
I        1.65890991      20.30590219       8.24687392       0.12687444      -0.16383353       0.26594189      -0.30136429      -1.94905896      -0.29536553
I       10.34547849       0.67540900      10.79482085       0.07344363       0.20551959      -0.02146362      -0.72396007      -1.85469531       1.08975426
I       10.49236859      14.59409318       8.10203264       0.01156993       0.25071105       0.26292609      -0.03708789      -0.92456091       0.96372494
I       17.51589532      13.33059593       8.41453812      -0.22956604       0.12595313      -0.25398565      -1.01690180      -0.72210251       1.30306141
I        3.43940454       2.37349839      10.89487461       0.04470453      -0.08696485      -0.17275667      -1.21881630      -0.64643545      -0.80406226
I       12.54371145      18.65630783       8.38368591       0.06065362      -0.01525185      -0.22488052       0.57260072      -0.29985853      -0.01848550
I        8.74956123      18.09928651      10.81440235      -0.28085720      -0.09914828       0.11969850       0.65559752       0.41743099      -0.93098659
I        5.57047298      16.37102854       8.01321554      -0.15792284       0.05271210       0.33506921       0.38144033      -1.12426685      -0.33227413
I       15.68505668      20.23768707      10.69492806       0.13702852       0.13560920       0.05123881       2.23412904       1.82768318      -1.94190118
I        6.50660129       0.62201685       8.39250750       0.15709482      -0.11203239      -0.03487951       0.40871996      -0.53796649      -0.31236067
I       14.36037305      15.08312436      10.73895289       0.10084525       0.00274671       0.07895118       1.65484883      -1.30751893       0.86161326
Cs       7.30048807      13.78577455      15.88956242       0.21143139       0.13229287      -0.27262341      -1.27213285      -0.41650380       1.68128922
Cs      13.39413933       1.65348892      13.22650429       0.05885933      -0.10978510      -0.02963542       0.40257896      -1.42152362      -0.99280040
Cs       4.84124251      19.54409743      15.62980154       0.02653943      -0.22606562       0.04577677      -0.39769217       0.26960213      -1.28422877
Cs      16.69868064      17.52350264      13.20792762      -0.19527102      -0.22644700      -0.09086285      -0.00224578       2.79545524      -1.74525357
Cs       7.28415418      13.96725052       1.20423993       0.07973629      -0.04336122      -0.05419139      -0.52085830      -2.22375663       1.30379727
Cs      13.89192178       1.61262962      18.06453677      -0.21741643       0.01358056      -0.02626670      -0.32415004       1.77869463      -0.09265009
Cs       4.69087623      19.58081360       0.93185896       0.00721972      -0.17608579       0.12133129       0.03356754       2.09022109      -0.83269072
Cs      16.41821407      17.40081478      18.07209369       0.07389116      -0.01925287      -0.16452081       0.40592704       2.09838972      -0.22761271
Pb       2.93191362      14.93740867      13.19075176      -0.04961018       0.29911777       0.13176957       1.27356987      -4.14254228      -1.86219040
Pb      18.31816424       0.93108201      15.39216623      -0.11908687      -0.10427734       0.25270506       0.61498449      -0.60319682      -1.16897631
Pb       9.59635952      20.05225962      13.39596960      -0.07983023       0.08454719      -0.09854053      -3.75349725      -2.32275188      -0.21443675
Pb      11.63304419      16.63773049      15.54861396       0.21216765      -0.25692378      -0.11124826       1.70576654       2.71218326       1.61540308
Pb       2.60059115      14.99259287      17.97435497       0.05304040      -0.29352370      -0.06824903       0.56822087       0.60812185       0.22978244
Pb      18.39913552       0.80407983       1.14615092      -0.26442010      -0.05875676      -0.34924184       0.71444574      -0.87389218      -2.23813681
Pb       9.71696812      20.31230275      18.14740771      -0.12499962      -0.10474938      -0.02536083       2.36598621      -2.48122751      -0.55906384
Pb      11.64198461      16.61024155       1.06786172       0.03747577      -0.11703533       0.10119935      -0.14776990      -1.89271377       0.37499871
I        1.70094601      16.81781977      15.67568408      -0.04427287       0.09722930      -0.11518094       1.88499487      -0.27248747       1.16046043
I        1.81998709      20.18249197      13.33086694      -0.03530907      -0.06418963       0.00517841       2.71968386       2.62806900      -1.36017698
I       10.43130401       1.18194121      15.75745493       0.14146224      -0.29201128      -0.21860592       0.05432300       0.93726258      -1.53202881
I       10.60023367      14.75072314      13.09423878      -0.22525873      -0.01885821       0.23338352       1.96997705      -0.24116900      -1.93556865
I       17.50750801      13.63065933      13.29602693       0.03569203      -0.15381294      -0.47915893      -0.47188960       0.28136375      -1.95451936
I        3.45477968       2.42635198      15.80084733       0.09304180      -0.02179702      -0.21138353      -1.69183624      -0.99437568       0.40867926
I       12.68873070      18.47366974      12.93296196      -0.13827213       0.24194053       0.27823191      -0.88200007      -0.06897427      -0.20112636
I        8.69656274      18.06664953      15.86173237      -0.07676227       0.06151845      -0.07835663       2.47172091       0.50026102       0.51953365
I        5.69056330      16.45414307      13.24020018      -0.19070645      -0.19294402       0.03533809      -2.51195590       0.06290754      -0.01696828
I       15.88981607      20.22305104      15.37543588       0.01209883       0.29369217       0.15886467      -0.40119788      -2.22301891      -0.57948706
I        6.64232075       0.60183857      13.20308618       0.11482176      -0.08418233       0.02961413       0.68310759       2.22445871      -0.54247088
I       14.40449810      15.08217584      15.37154127      -0.08438119       0.22725306       0.22162756       2.07795143      -1.27006099       0.29327571
I        1.40662466      16.77855648       0.94898653       0.01257759       0.25852763       0.00655859      -0.84273036       0.93180592       2.26732293
I        1.65412855      20.16517833      18.03658789       0.06281779      -0.04073092      -0.01114118      -0.29650339       1.16121857       0.14043427
I       10.49532295       1.14392100       1.14705929       0.03951716      -0.05368797      -0.02234663      -0.17974177      -2.42122763      -0.06687719
I       10.62208702      14.70181772      17.93923238      -0.04922944       0.06679499       0.14250045       1.48519640      -2.53568114      -0.43976770
I       17.58238550      13.42601997      17.82193625      -0.07726689       0.07654980       0.30019640       0.27002876      -2.02763473      -0.34880680
I        3.37662849       2.52665981       0.90913432      -0.09053695      -0.07110457       0.15849214       0.77395370      -0.56144518       0.12060164
I       12.55951554      18.58850141      18.08374047       0.26938748       0.23648293      -0.25107573       1.27927102      -0.88119873       1.57138860
I        8.69146246      18.16794766       1.15548814      -0.18992725      -0.15231865      -0.13757334      -1.11368396       0.14037587       0.33455970
I        5.44124829      16.20970128      18.10319743       0.01324735       0.24849080      -0.04011987       0.73607719      -0.58873062      -1.04002857
I       15.77564543      20.41823794       1.19151482       0.07990219      -0.05396153      -0.12810073       1.13326903      -0.47082307       0.60923863
I        6.66334172       0.66717798      17.99001232       0.05125148       0.04840769       0.03707622      -1.04538639       0.34139964      -0.98200097
I       14.44751797      15.14591733       1.18250996      -0.12655135       0.02540597      -0.03701555       1.13495730      -1.10469930       1.82084614
Cs      25.34361108       3.52996621       5.63635660      -0.04237625      -0.15629899       0.22542263      -1.56820952       0.12533277       1.44991537
Cs      31.49387033      12.11769304       3.40368930      -0.04130433      -0.06415087      -0.05763271       2.32665941      -0.34653742      -0.39707949
Cs      22.44554723       8.67476873       5.80225549       0.14072098      -0.04176022       0.19867893      -0.40791953      -0.14922721       3.61820503
Cs      34.08700363       6.73200116       3.42223674      -0.00449869       0.13343381      -0.11613466       2.40944097       0.39260723      -0.89551034
Cs      25.16124673       3.38238940      10.76792329       0.19827697       0.10438619      -0.08815227      -0.46125911      -0.77564983       1.71544202
Cs      31.58585866      12.03846355       8.14945792      -0.10533228       0.08691970      -0.04881900      -1.12344032      -0.03829783       0.44478153
Cs      22.59646392       8.80154970      10.71319693      -0.03462185      -0.10163818      -0.12229986      -0.34207332       0.19134551       0.43182853
Cs      34.22211941       6.91185062       8.21929004       0.02779537      -0.11118461      -0.12974909      -1.17359759       0.85968713       1.28667048
Pb      20.54368575       4.25025586       3.41083440      -0.06289608       0.00937885       0.25007505      -0.93004650      -0.05778196      -1.71641504
Pb       0.51404770      11.92677344       5.94681026       0.32511301      -0.28505865       0.07696249      -0.90127103      -1.69551564       0.49993873
Pb      27.29726244       9.59225208       3.31939484      -0.24300138      -0.30822977       0.47341905       0.42210566      -0.48002765       4.78562484
Pb      29.32678789       6.07260673       5.79919136      -0.06625663      -0.07175050       0.27461796       1.03576484      -2.45506366      -0.16889392
Pb      20.53220767       4.15640115       8.37903800       0.00362373      -0.07492613      -0.14150366       2.00545335      -0.05641867       1.82137036
Pb       0.48883549      11.61920960      10.98129849       0.36534618      -0.20678360      -0.39646315       1.13354728       0.22538414       0.35452838
Pb      27.24582686       9.65371067       8.29754312      -0.09382386      -0.25084234      -0.32705098       1.68762240      -2.05842266       0.63170630
Pb      29.41550371       6.14105410      10.54589923      -0.22613577      -0.23412614      -0.20061027       2.85741475       1.89465362       0.10149255
I       19.36106334       6.01370040       6.00563647       0.07674035      -0.05338719      -0.18189239       1.10662277       0.33468794      -1.87916457
I       19.49679478       9.46159979       3.48413121      -0.12646040       0.10175792      -0.07037713       0.88240570       1.65104598       1.36895093
I       28.31104685      11.48561717       5.93611742       0.01520873      -0.07287331      -0.43775334       0.42267238       0.17593189       0.56684124
I       28.28649876       4.17331824       3.50585377       0.19473174       0.28211675      -0.53020302       3.25425158       0.51117182       0.42716145
I       35.23110834       2.74026447       3.24973669      -0.00604924       0.00437631      -0.07454920       0.90719599      -0.36792810       1.14277622
I       21.64591648      12.73013592       5.91800657      -0.21845481       0.02929519      -0.09450332       1.35971211       2.25535620       1.99592071
I       30.20927459       8.23800393       3.58681715       0.37958590       0.06492211      -0.19277741      -0.66498132      -0.56758090      -0.25614907
I       26.26770796       7.49033344       5.91152404       0.17225979       0.21543764      -0.19652443       1.90515213      -1.11193013       0.21280925
I       23.24262045       5.79474394       3.38220047      -0.07725464      -0.09363237      -0.01438856       2.22398831      -0.19119254       0.67074289
I       33.78163495       9.89463898       5.75770652      -0.36994226      -0.03780321      -0.03542636       0.73454088      -0.74116473      -0.38817706
I       24.49220395      10.88135421       3.32869116      -0.03200045       0.13101234       0.11883690      -0.00533774       0.40948812      -2.36750241
I       32.07055180       4.54742493       5.75350500       0.09119072       0.07604263       0.11506582      -2.25830701      -2.21608693      -1.95705574
I       19.46462649       6.06528404      10.65216008       0.00111424       0.00031816       0.15893603       1.60274139      -0.60288421      -1.12120808
I       19.47489131       9.49900978       8.26306387      -0.02770253       0.17435526       0.24705978       0.13059041      -0.83623250       2.21363720