320
Lattice="31.392636507215773 -0.04481615214523286 0.09492011689125937 0.1392903615087138 28.887165468702893 0.25788863917263216 -0.2799812260619887 -0.14238296324623026 16.953981605175922" Properties=species:S:1:pos:R:3:forces:R:3:momenta:R:3 pbc="T T T"
Cs       0.72248633       5.17678392       3.53164243      -0.05937428      -0.02454367       0.02870837      -0.55529994       0.13308703       0.42047824
Cs       4.97369203       7.80021105       8.09641994      -0.07595939      -0.00414229      -0.04059411      -0.96665034       0.39110812       0.34262580
Cs       1.14806394      12.31376211      16.71266396      -0.03345077       0.01634444      -0.03069360       0.32643108       1.47029079       3.15499621
Cs       5.23203804      14.90898316       3.74090224      -0.06992719       0.06165231       0.00982092       0.44964597       0.52957428       0.94132073
Cs       8.68837986       5.52641072       3.63270450       0.19882018      -0.12350302       0.04635635      -0.03243288      -1.41839040      -0.03582287
Cs      12.75449997       7.79230416       8.12314877       0.01235908       0.02454601      -0.06034773       0.81238098       1.83634731       2.02303502
Cs       8.46315426      12.66348662      16.61132804       0.07574780      -0.02240351      -0.01074467      -1.05226916      -1.82941704      -0.39829299
Cs      12.40991254      15.26003184       3.84701921       0.02850829       0.01730796       0.03096209      -1.11800604       0.29790186       1.32243318
Pb       2.41146968      17.13819166       7.86213824      -0.15519724       0.47272393       0.31418750      -2.18059930       1.69194946      -1.36912398
Pb       6.28708271      17.41515670       8.08945487       0.09063652       0.43931308       0.12749600       0.99792520       0.69170600       1.02858155
Pb       3.50954698      10.00545371       3.76477641      -0.09010898       0.35994202       0.13416202       3.00039983       3.38232198       2.15570262
Pb      31.05676367      10.26618383       4.03107711      -0.22726945       0.00449363       0.14404802      -0.57103330      -1.40557888      -0.10064870
Pb      10.24663680      17.52345626       8.17942193       0.19363168       0.32598100       0.13575830       1.47726889       0.52260017      -0.03848129
Pb      14.18959038      17.36215130       8.07941783      -0.34829980       0.06578173       0.20553327       0.17774032       2.29246666       0.32727764
Pb      11.39090433      10.42924350       3.69026910       0.32897134      -0.18350315       0.71750331      -1.32169994       2.36830096      -1.25881231
Pb       7.39450207      10.12893230       3.96884830       0.33594778       0.16572505      -0.17396568      -0.64532689       1.40714984       0.68848453
I        4.22194874       4.29542441       1.70955270      -0.08417439      -0.33632141      -0.47854654       0.67988431      -0.41242891      -0.15137961
I        1.58634077       9.06982686       1.55627225       0.01471130      -0.11853334      -0.29740814       0.71380917      -0.05907097      -0.09314469
I        4.20865639       4.13872406       5.53297954       0.05661482      -0.06356139       0.33001977       1.31679376      -1.14306081       0.00029772
I        1.73676972       8.31173732       5.83277381      -0.01312140       0.27412695      -0.21136316       0.48026762      -1.14106771       0.96380008
I        5.65767997       7.60214547       3.33834084      -0.18014646      -0.14685137       0.07153216       0.27972276      -0.64648896       0.96362131
I        0.25538469       5.44093587       7.99030985       0.26079017      -0.18025827      -0.01444001       1.45675256       0.34847512      -2.03070257
I        5.49700241      11.19737635       6.16861233      -0.06575013      -0.01692918       0.13958531      -1.31729848      -0.25636097      -0.26796694
I        0.17440947      15.90880682       5.84392713       0.13850154       0.07488110      -0.06168262       1.04954791      -0.37496517      -0.68040173
I        5.63370166      11.85728426       1.85397287      -0.16568348      -0.14115460      -0.03017689       0.89293156       0.37907885       1.65816346
I        0.42201419      15.98373436       1.69725649       0.20971394      -0.00631933      -0.05210736      -0.02477843       2.10372205       0.82363842
I        4.52182279      14.80104115       7.82310816      -0.13638234      -0.17995556      -0.00564629      -0.72289455       0.15497089      -0.95122445
I        1.76196512      12.79693303       4.11925119       0.23983366      -0.29254506       0.00395366       0.17337283      -0.35206018       1.52564561
I       12.30723824       4.17708858       1.99964834      -0.01778761      -0.08496079      -0.32457203      -0.98115880       0.14142769       0.57079745
I        9.64599594       9.49561170       1.42970960      -0.12681415      -0.09815672      -0.13891495      -1.38707603       0.24885900      -0.72623896
I       12.05271033       4.51017181       5.91349518       0.02491524       0.05371662       0.03107916      -1.08195399      -0.07298186       1.72918066
I        9.41212834       8.50910664       5.76738564       0.25706588       0.13959557      -0.13137891      -1.31079607       1.03049919       0.35034423
I       13.38321372       7.78422864       3.36522590       0.02535548       0.10983164       0.05157009       1.79752649      -2.17135746       1.13717419
I        8.05314179       5.65342038       8.32856852      -0.08872783      -0.10637375       0.03723965       1.83359224       1.11166184      -1.05904009
I       13.63720343      11.22370464       6.48828311      -0.23043825      -0.14563270      -0.37143453      -0.17854446       0.47242882       3.57689458
I        8.38131762      16.57390149       5.83846310      -0.14220031      -0.17467215      -0.26170351      -1.71188136       3.11196297       0.30087840
I       13.52446173      12.18133404       1.99994816       0.05661955      -0.20195506       0.15280103      -0.79925665      -0.37174879      -0.49317039
I        8.44591342      15.92707848       1.67965077      -0.22953861       0.03878835       0.07771403       0.21660738       2.08003496      -0.94920167
I       11.87673951      14.96365164       7.99644989       0.09943257      -0.25786569      -0.09395124       0.42695260       0.17685643       2.00397813
I        9.38341703      12.74600248       4.39078118      -0.10782478       0.26539061      -0.00035904       1.66752346       4.75634963      -2.04533575
Cs       0.58249572       5.10559244      12.00863323      -0.05937428      -0.02454367       0.02870837      -0.55529994       0.13308703       0.42047824
Cs       4.83370142       7.72901957      16.57341074      -0.07595939      -0.00414229      -0.04059411      -0.96665034       0.39110812       0.34262580
Cs       1.28805456      12.38495359       8.23567315      -0.03345077       0.01634444      -0.03069360       0.32643108       1.47029079       3.15499621
Cs       5.09204743      14.83779168      12.21789304      -0.06992719       0.06165231       0.00982092       0.44964597       0.52957428       0.94132073
Cs       8.54838925       5.45521924      12.10969530       0.19882018      -0.12350302       0.04635635      -0.03243288      -1.41839040      -0.03582287
Cs      12.61450936       7.72111268      16.60013957       0.01235908       0.02454601      -0.06034773       0.81238098       1.83634731       2.02303502
Cs       8.60314488      12.73467810       8.13433723       0.07574780      -0.02240351      -0.01074467      -1.05226916      -1.82941704      -0.39829299
Cs      12.26992193      15.18884036      12.32401001       0.02850829       0.01730796       0.03096209      -1.11800604       0.29790186       1.32243318
Pb       2.27147907      17.06700018      16.33912904      -0.15519724       0.47272393       0.31418750      -2.18059930       1.69194946      -1.36912398
Pb       6.14709210      17.34396522      16.56644567       0.09063652       0.43931308       0.12749600       0.99792520       0.69170600       1.02858155
Pb       3.36955637       9.93426223      12.24176721      -0.09010898       0.35994202       0.13416202       3.00039983       3.38232198       2.15570262
Pb      30.91677305      10.19499235      12.50806791      -0.22726945       0.00449363       0.14404802      -0.57103330      -1.40557888      -0.10064870
Pb      10.10664619      17.45226478      16.65641273       0.19363168       0.32598100       0.13575830       1.47726889       0.52260017      -0.03848129
Pb      14.04959977      17.29095982      16.55640863      -0.34829980       0.06578173       0.20553327       0.17774032       2.29246666       0.32727764
Pb      11.25091372      10.35805202      12.16725990       0.32897134      -0.18350315       0.71750331      -1.32169994       2.36830096      -1.25881231
Pb       7.25451146      10.05774082      12.44583910       0.33594778       0.16572505      -0.17396568      -0.64532689       1.40714984       0.68848453
I        4.08195813       4.22423293      10.18654350      -0.08417439      -0.33632141      -0.47854654       0.67988431      -0.41242891      -0.15137961
I        1.44635016       8.99863538      10.03326305       0.01471130      -0.11853334      -0.29740814       0.71380917      -0.05907097      -0.09314469
I        4.06866578       4.06753258      14.00997034       0.05661482      -0.06356139       0.33001977       1.31679376      -1.14306081       0.00029772
I        1.59677911       8.24054584      14.30976461      -0.01312140       0.27412695      -0.21136316       0.48026762      -1.14106771       0.96380008
I        5.51768936       7.53095399      11.81533164      -0.18014646      -0.14685137       0.07153216       0.27972276      -0.64648896       0.96362131
I        0.11539408       5.36974439      16.46730065       0.26079017      -0.18025827      -0.01444001       1.45675256       0.34847512      -2.03070257
I        5.35701180      11.12618487      14.64560313      -0.06575013      -0.01692918       0.13958531      -1.31729848      -0.25636097      -0.26796694
I        0.03441886      15.83761534      14.32091793       0.13850154       0.07488110      -0.06168262       1.04954791      -0.37496517      -0.68040173
I        5.49371105      11.78609278      10.33096367      -0.16568348      -0.14115460      -0.03017689       0.89293156       0.37907885       1.65816346
I        0.28202358      15.91254288      10.17424729       0.20971394      -0.00631933      -0.05210736      -0.02477843       2.10372205       0.82363842
I        4.38183218      14.72984967      16.30009896      -0.13638234      -0.17995556      -0.00564629      -0.72289455       0.15497089      -0.95122445
I        1.62197451      12.72574155      12.59624199       0.23983366      -0.29254506       0.00395366       0.17337283      -0.35206018       1.52564561
I       12.16724763       4.10589710      10.47663914      -0.01778761      -0.08496079      -0.32457203      -0.98115880       0.14142769       0.57079745
I        9.50600533       9.42442022       9.90670040      -0.12681415      -0.09815672      -0.13891495      -1.38707603       0.24885900      -0.72623896
I       11.91271972       4.43898033      14.39048598       0.02491524       0.05371662       0.03107916      -1.08195399      -0.07298186       1.72918066
I        9.27213773       8.43791516      14.24437644       0.25706588       0.13959557      -0.13137891      -1.31079607       1.03049919       0.35034423
I       13.24322311       7.71303716      11.84221670       0.02535548       0.10983164       0.05157009       1.79752649      -2.17135746       1.13717419
I        7.91315118       5.58222890      16.80555932      -0.08872783      -0.10637375       0.03723965       1.83359224       1.11166184      -1.05904009
I       13.49721282      11.15251316      14.96527391      -0.23043825      -0.14563270      -0.37143453      -0.17854446       0.47242882       3.57689458
I        8.24132701      16.50271001      14.31545390      -0.14220031      -0.17467215      -0.26170351      -1.71188136       3.11196297       0.30087840
I       13.38447112      12.11014256      10.47693896       0.05661955      -0.20195506       0.15280103      -0.79925665      -0.37174879      -0.49317039
I        8.30592281      15.85588700      10.15664157      -0.22953861       0.03878835       0.07771403       0.21660738       2.08003496      -0.94920167
I       11.73674890      14.89246016      16.47344069       0.09943257      -0.25786569      -0.09395124       0.42695260       0.17685643       2.00397813
I        9.24342642      12.67481100      12.86777198      -0.10782478       0.26539061      -0.00035904       1.66752346       4.75634963      -2.04533575
Cs       0.79213151      19.62036665       3.66058675      -0.05937428      -0.02454367       0.02870837      -0.55529994       0.13308703       0.42047824
Cs       5.04333721      22.24379378       8.22536426      -0.07595939      -0.00414229      -0.04059411      -0.96665034       0.39110812       0.34262580
Cs       1.21770912      26.75734484      16.84160827      -0.03345077       0.01634444      -0.03069360       0.32643108       1.47029079       3.15499621
Cs       5.16239286       0.46540043       3.61195792      -0.06992719       0.06165231       0.00982092       0.44964597       0.52957428       0.94132073
Cs       8.75802504      19.96999345       3.76164882       0.19882018      -0.12350302       0.04635635      -0.03243288      -1.41839040      -0.03582287
Cs      12.82414515      22.23588689       8.25209309       0.01235908       0.02454601      -0.06034773       0.81238098       1.83634731       2.02303502
Cs       8.53279944      27.10706935      16.74027235       0.07574780      -0.02240351      -0.01074467      -1.05226916      -1.82941704      -0.39829299
Cs      12.34026736       0.81644911       3.71807489       0.02850829       0.01730796       0.03096209      -1.11800604       0.29790186       1.32243318
Pb       2.34182450       2.69460893       7.73319392      -0.15519724       0.47272393       0.31418750      -2.18059930       1.69194946      -1.36912398
Pb       6.21743753       2.97157397       7.96051055       0.09063652       0.43931308       0.12749600       0.99792520       0.69170600       1.02858155
Pb       3.57919216      24.44903644       3.89372073      -0.09010898       0.35994202       0.13416202       3.00039983       3.38232198       2.15570262
Pb      31.12640885      24.70976656       4.16002143      -0.22726945       0.00449363       0.14404802      -0.57103330      -1.40557888      -0.10064870
Pb      10.17699162       3.07987353       8.05047761       0.19363168       0.32598100       0.13575830       1.47726889       0.52260017      -0.03848129
Pb      14.11994520       2.91856857       7.95047351      -0.34829980       0.06578173       0.20553327       0.17774032       2.29246666       0.32727764
Pb      11.46054951      24.87282623       3.81921342       0.32897134      -0.18350315       0.71750331      -1.32169994       2.36830096      -1.25881231
Pb       7.46414725      24.57251503       4.09779262       0.33594778       0.16572505      -0.17396568      -0.64532689       1.40714984       0.68848453
I        4.29159392      18.73900714       1.83849702      -0.08417439      -0.33632141      -0.47854654       0.67988431      -0.41242891      -0.15137961
I        1.65598595      23.51340959       1.68521657       0.01471130      -0.11853334      -0.29740814       0.71380917      -0.05907097      -0.09314469
I        4.27830157      18.58230679       5.66192386       0.05661482      -0.06356139       0.33001977       1.31679376      -1.14306081       0.00029772
I        1.80641490      22.75532005       5.96171813      -0.01312140       0.27412695      -0.21136316       0.48026762      -1.14106771       0.96380008
I        5.72732515      22.04572820       3.46728516      -0.18014646      -0.14685137       0.07153216       0.27972276      -0.64648896       0.96362131
I        0.32502987      19.88451860       8.11925417       0.26079017      -0.18025827      -0.01444001       1.45675256       0.34847512      -2.03070257
I        5.56664759      25.64095908       6.29755665      -0.06575013      -0.01692918       0.13958531      -1.31729848      -0.25636097      -0.26796694
I        0.10476429       1.46522409       5.71498281       0.13850154       0.07488110      -0.06168262       1.04954791      -0.37496517      -0.68040173
I        5.70334684      26.30086699       1.98291719      -0.16568348      -0.14115460      -0.03017689       0.89293156       0.37907885       1.65816346
I        0.35236901       1.54015163       1.56831217       0.20971394      -0.00631933      -0.05210736      -0.02477843       2.10372205       0.82363842
I        4.45217761       0.35745842       7.69416384      -0.13638234      -0.17995556      -0.00564629      -0.72289455       0.15497089      -0.95122445
I        1.83161030      27.24051576       4.24819551       0.23983366      -0.29254506       0.00395366       0.17337283      -0.35206018       1.52564561
I       12.37688342      18.62067131       2.12859266      -0.01778761      -0.08496079      -0.32457203      -0.98115880       0.14142769       0.57079745
I        9.71564112      23.93919443       1.55865392      -0.12681415      -0.09815672      -0.13891495      -1.38707603       0.24885900      -0.72623896
I       12.12235551      18.95375454       6.04243950       0.02491524       0.05371662       0.03107916      -1.08195399      -0.07298186       1.72918066
I        9.48177352      22.95268937       5.89632996       0.25706588       0.13959557      -0.13137891      -1.31079607       1.03049919       0.35034423
I       13.45285890      22.22781137       3.49417022       0.02535548       0.10983164       0.05157009       1.79752649      -2.17135746       1.13717419
I        8.12278697      20.09700311       8.45751284      -0.08872783      -0.10637375       0.03723965       1.83359224       1.11166184      -1.05904009
I       13.70684861      25.66728737       6.61722743      -0.23043825      -0.14563270      -0.37143453      -0.17854446       0.47242882       3.57689458
I        8.31167244       2.13031876       5.70951878      -0.14220031      -0.17467215      -0.26170351      -1.71188136       3.11196297       0.30087840
I       13.59410691      26.62491677       2.12889248       0.05661955      -0.20195506       0.15280103      -0.79925665      -0.37174879      -0.49317039
I        8.37626824       1.48349575       1.55070645      -0.22953861       0.03878835       0.07771403       0.21660738       2.08003496      -0.94920167
I       11.80709433       0.52006891       7.86750557       0.09943257      -0.25786569      -0.09395124       0.42695260       0.17685643       2.00397813
I        9.45306221      27.18958521       4.51972550      -0.10782478       0.26539061      -0.00035904       1.66752346       4.75634963      -2.04533575
Cs       0.65214090      19.54917517      12.13757755      -0.05937428      -0.02454367       0.02870837      -0.55529994       0.13308703       0.42047824
Cs       4.90334660      22.17260230      16.70235506      -0.07595939      -0.00414229      -0.04059411      -0.96665034       0.39110812       0.34262580
Cs       1.35769974      26.82853632       8.36461747      -0.03345077       0.01634444      -0.03069360       0.32643108       1.47029079       3.15499621
Cs       5.02240225       0.39420894      12.08894872      -0.06992719       0.06165231       0.00982092       0.44964597       0.52957428       0.94132073
Cs       8.61803443      19.89880197      12.23863962       0.19882018      -0.12350302       0.04635635      -0.03243288      -1.41839040      -0.03582287
Cs      12.68415454      22.16469541      16.72908389       0.01235908       0.02454601      -0.06034773       0.81238098       1.83634731       2.02303502
Cs       8.67279006      27.17826083       8.26328155       0.07574780      -0.02240351      -0.01074467      -1.05226916      -1.82941704      -0.39829299
Cs      12.20027675       0.74525762      12.19506569       0.02850829       0.01730796       0.03096209      -1.11800604       0.29790186       1.32243318
Pb       2.20183389       2.62341744      16.21018472      -0.15519724       0.47272393       0.31418750      -2.18059930       1.69194946      -1.36912398
Pb       6.07744692       2.90038248      16.43750135       0.09063652       0.43931308       0.12749600       0.99792520       0.69170600       1.02858155
Pb       3.43920155      24.37784496      12.37071153      -0.09010898       0.35994202       0.13416202       3.00039983       3.38232198       2.15570262
Pb      30.98641823      24.63857508      12.63701223      -0.22726945       0.00449363       0.14404802      -0.57103330      -1.40557888      -0.10064870
Pb      10.03700101       3.00868204      16.52746841       0.19363168       0.32598100       0.13575830       1.47726889       0.52260017      -0.03848129
Pb      13.97995459       2.84737708      16.42746431      -0.34829980       0.06578173       0.20553327       0.17774032       2.29246666       0.32727764
Pb      11.32055890      24.80163475      12.29620422       0.32897134      -0.18350315       0.71750331      -1.32169994       2.36830096      -1.25881231
Pb       7.32415664      24.50132355      12.57478342       0.33594778       0.16572505      -0.17396568      -0.64532689       1.40714984       0.68848453
I        4.15160331      18.66781566      10.31548782      -0.08417439      -0.33632141      -0.47854654       0.67988431      -0.41242891      -0.15137961
I        1.51599534      23.44221811      10.16220737       0.01471130      -0.11853334      -0.29740814       0.71380917      -0.05907097      -0.09314469
I        4.13831096      18.51111531      14.13891466       0.05661482      -0.06356139       0.33001977       1.31679376      -1.14306081       0.00029772
I        1.66642429      22.68412857      14.43870893      -0.01312140       0.27412695      -0.21136316       0.48026762      -1.14106771       0.96380008
I        5.58733454      21.97453672      11.94427596      -0.18014646      -0.14685137       0.07153216       0.27972276      -0.64648896       0.96362131
I        0.18503926      19.81332712      16.59624497       0.26079017      -0.18025827      -0.01444001       1.45675256       0.34847512      -2.03070257
I        5.42665698      25.56976760      14.77454745      -0.06575013      -0.01692918       0.13958531      -1.31729848      -0.25636097      -0.26796694
I       -0.03522632       1.39403260      14.19197361       0.13850154       0.07488110      -0.06168262       1.04954791      -0.37496517      -0.68040173
I        5.56335623      26.22967551      10.45990799      -0.16568348      -0.14115460      -0.03017689       0.89293156       0.37907885       1.65816346
I        0.21237840       1.46896014      10.04530297       0.20971394      -0.00631933      -0.05210736      -0.02477843       2.10372205       0.82363842
I        4.31218700       0.28626693      16.17115464      -0.13638234      -0.17995556      -0.00564629      -0.72289455       0.15497089      -0.95122445
I        1.69161969      27.16932428      12.72518631       0.23983366      -0.29254506       0.00395366       0.17337283      -0.35206018       1.52564561
I       12.23689281      18.54947983      10.60558346      -0.01778761      -0.08496079      -0.32457203      -0.98115880       0.14142769       0.57079745
I        9.57565051      23.86800295      10.03564472      -0.12681415      -0.09815672      -0.13891495      -1.38707603       0.24885900      -0.72623896
I       11.98236490      18.88256306      14.51943030       0.02491524       0.05371662       0.03107916      -1.08195399      -0.07298186       1.72918066
I        9.34178291      22.88149789      14.37332076       0.25706588       0.13959557      -0.13137891      -1.31079607       1.03049919       0.35034423
I       13.31286829      22.15661989      11.97116102       0.02535548       0.10983164       0.05157009       1.79752649      -2.17135746       1.13717419
I        7.98279636      20.02581163      16.93450364      -0.08872783      -0.10637375       0.03723965       1.83359224       1.11166184      -1.05904009
I       13.56685800      25.59609589      15.09421823      -0.23043825      -0.14563270      -0.37143453      -0.17854446       0.47242882       3.57689458
I        8.17168183       2.05912727      14.18650958      -0.14220031      -0.17467215      -0.26170351      -1.71188136       3.11196297       0.30087840
I       13.45411630      26.55372529      10.60588328       0.05661955      -0.20195506       0.15280103      -0.79925665      -0.37174879      -0.49317039
I        8.23627763       1.41230426      10.02769725      -0.22953861       0.03878835       0.07771403       0.21660738       2.08003496      -0.94920167
I       11.66710372       0.44887742      16.34449637       0.09943257      -0.25786569      -0.09395124       0.42695260       0.17685643       2.00397813
I        9.31307160      27.11839373      12.99671630      -0.10782478       0.26539061      -0.00035904       1.66752346       4.75634963      -2.04533575
Cs      16.41880458       5.15437584       3.57910249      -0.05937428      -0.02454367       0.02870837      -0.55529994       0.13308703       0.42047824
Cs      20.67001028       7.77780297       8.14388000      -0.07595939      -0.00414229      -0.04059411      -0.96665034       0.39110812       0.34262580
Cs      16.84438220      12.29135403      16.76012401      -0.03345077       0.01634444      -0.03069360       0.32643108       1.47029079       3.15499621
Cs      20.92835629      14.88657508       3.78836230      -0.06992719       0.06165231       0.00982092       0.44964597       0.52957428       0.94132073
Cs      24.38469811       5.50400264       3.68016456       0.19882018      -0.12350302       0.04635635      -0.03243288      -1.41839040      -0.03582287
Cs      28.45081822       7.76989608       8.17060883       0.01235908       0.02454601      -0.06034773       0.81238098       1.83634731       2.02303502
Cs      24.15947252      12.64107854      16.65878809       0.07574780      -0.02240351      -0.01074467      -1.05226916      -1.82941704      -0.39829299
Cs      28.10623079      15.23762376       3.89447927       0.02850829       0.01730796       0.03096209      -1.11800604       0.29790186       1.32243318
Pb      18.10778793      17.11578358       7.90959830      -0.15519724       0.47272393       0.31418750      -2.18059930       1.69194946      -1.36912398
Pb      21.98340096      17.39274862       8.13691493       0.09063652       0.43931308       0.12749600       0.99792520       0.69170600       1.02858155
Pb      19.20586523       9.98304563       3.81223647      -0.09010898       0.35994202       0.13416202       3.00039983       3.38232198       2.15570262
Pb      15.36044541      10.28859190       3.98361705      -0.22726945       0.00449363       0.14404802      -0.57103330      -1.40557888      -0.10064870
Pb      25.94295505      17.50104818       8.22688199       0.19363168       0.32598100       0.13575830       1.47726889       0.52260017      -0.03848129
Pb      29.88590863      17.33974322       8.12687789      -0.34829980       0.06578173       0.20553327       0.17774032       2.29246666       0.32727764
Pb      27.08722258      10.40683542       3.73772916       0.32897134      -0.18350315       0.71750331      -1.32169994       2.36830096      -1.25881231
Pb      23.09082032      10.10652422       4.01630836       0.33594778       0.16572505      -0.17396568      -0.64532689       1.40714984       0.68848453
I       19.91826699       4.27301633       1.75701276      -0.08417439      -0.33632141      -0.47854654       0.67988431      -0.41242891      -0.15137961
I       17.28265902       9.04741878       1.60373231       0.01471130      -0.11853334      -0.29740814       0.71380917      -0.05907097      -0.09314469
I       19.90497464       4.11631598       5.58043960       0.05661482      -0.06356139       0.33001977       1.31679376      -1.14306081       0.00029772
I       17.43308797       8.28932924       5.88023387      -0.01312140       0.27412695      -0.21136316       0.48026762      -1.14106771       0.96380008
I       21.35399822       7.57973739       3.38580090      -0.18014646      -0.14685137       0.07153216       0.27972276      -0.64648896       0.96362131
I       15.95170294       5.41852779       8.03776991       0.26079017      -0.18025827      -0.01444001       1.45675256       0.34847512      -2.03070257
I       21.19332066      11.17496827       6.21607239      -0.06575013      -0.01692918       0.13958531      -1.31729848      -0.25636097      -0.26796694
I       15.87072772      15.88639874       5.89138719       0.13850154       0.07488110      -0.06168262       1.04954791      -0.37496517      -0.68040173
I       21.33001991      11.83487618       1.90143293      -0.16568348      -0.14115460      -0.03017689       0.89293156       0.37907885       1.65816346
I       16.11833244      15.96132628       1.74471655       0.20971394      -0.00631933      -0.05210736      -0.02477843       2.10372205       0.82363842
I       20.21814104      14.77863307       7.87056822      -0.13638234      -0.17995556      -0.00564629      -0.72289455       0.15497089      -0.95122445
I       17.45828337      12.77452495       4.16671125       0.23983366      -0.29254506       0.00395366       0.17337283      -0.35206018       1.52564561
I       28.00355649       4.15468050       2.04710840      -0.01778761      -0.08496079      -0.32457203      -0.98115880       0.14142769       0.57079745
I       25.34231419       9.47320362       1.47716966      -0.12681415      -0.09815672      -0.13891495      -1.38707603       0.24885900      -0.72623896