320
Lattice="31.392636507215773 -0.04481615214523286 0.09492011689125937 0.1392903615087138 28.887165468702893 0.25788863917263216 -0.2799812260619887 -0.14238296324623026 16.953981605175922" Properties=species:S:1:pos:R:3:forces:R:3:momenta:R:3 energy=-963.7267597703519 stress="0.0 0.0 0.0 0.0 0.0 0.0 0.0 0.0 0.0" pbc="T T T"
Cs       2.07015809       4.44209349       3.22575169      -0.16758332      -0.10131288      -0.03571800       0.11494839       1.43651204       1.38723310
Cs       5.78546841       6.14175004       7.94807292      -0.16921577       0.16481745       0.06513412       0.32794135       0.03136239       0.91053649
Cs       0.90355625      11.00759091      16.48263536       0.14221859      -0.09126153      -0.09152628       4.80443128       1.84153990       1.20777067
Cs       5.22754998      13.57024833       3.50430274      -0.13308306      -0.12934638       0.01104005       0.62980075      -2.00459425      -1.67087948
Cs       9.50505391       4.35850074       3.15434894       0.08896525      -0.34389209       0.06103907      -0.48111140       0.14778002      -2.58442282
Cs      13.46165067       6.33873803       7.79736992      -0.00701074       0.00817989       0.09005385       3.12456568       1.34897391       1.25213477
Cs      10.13761369      10.97509718      16.83112887      -0.42093484      -0.15107960      -0.13427940       3.93252429      -0.84398758      -0.07330986
Cs      12.55175421      14.22069516       3.63119783       0.16229795       0.01160724       0.04638936       0.51342370      -0.07828666      -2.68617424
Pb       2.77177729      15.65549206       7.69002965      -0.07011297       0.71954248      -0.14563067      -0.47127124       0.64152422       2.84168170
Pb       6.95006263      15.60544196       8.33715087      -0.31805127      -0.30550265       0.19844962      -0.78550820       0.05595954       3.49992591
Pb       3.97716507       8.91769900       3.85344007       0.21046312      -0.65676642      -0.12034061      -2.15737944       5.81273691       4.06411716
Pb      -0.11775774       8.28386694       3.90804409      -0.11452977       0.08612773      -0.11387161       4.43748383      -3.19754463      -1.50048432
Pb      10.81811346      15.82149359       7.86097419       0.39335047      -0.20254270       0.62687380       4.97141189      -2.14260930     -11.05198641
Pb      14.94546192      15.77548599       7.98086805      -1.35227634       0.12466999       0.21274526       0.58472783      -1.03877281       1.70084217
Pb      11.93684009       8.57522805       3.68582124      -0.10652462       0.21750955      -0.23682070       1.04147251       7.26688262       4.79794075
Pb       8.03851579       8.56197646       3.95299317      -0.68667372       0.32775707      -0.83627287      -4.08583065       1.07473341       8.71518195
I        5.16335928       2.75540221       1.45417467      -0.14817739      -0.10885630      -0.16326960       2.90440894       1.78106852       3.88115159
I        2.32575343       7.46778649       1.72553394      -0.20164554      -0.18177666      -0.47456291      -2.11182068       4.34436599      -5.43797723
I        4.79181661       3.12730316       5.63478716       0.07715073      -0.23400271      -0.01380699      -1.98745754      -2.40353170      -5.25890499
I        2.23602219       7.31373418       6.16506874      -0.12818419       0.00695577      -0.44797921      -1.06305279       1.36421914       4.31813015
I        6.23618131       5.94015981       3.83244968      -0.24346118       0.86847376       0.12682705      -1.13374663       2.51990561       1.76686536
I        0.77837538       4.21568464       8.43180536      -0.03881741       0.52655643      -0.17538569      -1.54028252       0.89874914       4.73419365
I        5.96691349      10.23619005       5.76751277       0.29056685       0.19967574       0.44212420      -0.75534212       3.15456571       3.34586579
I        0.64500573      14.47635491       5.33468046       0.13394255       0.52518355       0.44824001       0.50526310       2.00560657       4.30112292
I        5.91535404       9.52542344       1.23255637       0.19694766       0.14669747       0.45286074      -1.42017251       2.46247462      -0.00516063
I        0.34991274      14.34418112       1.27408239       0.61298163      -0.01187538      -0.04576157       1.44696973      -1.24747527      -0.19166823
I        4.32187153      13.25752792       8.14875232       0.29406648      -0.10541189      -0.11825472      -4.49885450      -0.00365758      -1.61184613
I        1.53323225      10.92550843       4.60056835       0.68840285       0.67477677      -0.43082251       0.79821402      -2.62632663       3.19748911
I       12.53314908       2.43942130       1.48567517      -0.62943562       0.22350023       0.15573241       0.37125432       2.84879068       0.00629262
I        9.75234595       7.42170649       1.39579928       0.27955838      -0.04929793       0.28506205      -3.98187350       0.45542244       3.38788861
I       12.89575851       3.17284892       5.62171554      -0.43821299       0.05860745      -0.00808472       2.38879368      -1.92490225       0.53079606
I        9.89025147       7.69762207       6.01117409       0.17295846      -0.36974428       0.33004862      -2.37192251       0.58243991       5.07056089
I       13.94775707       6.15095214       3.25300825       0.09770206      -0.27152700       0.02024110       4.40143114      -0.66077522       0.92486678
I        8.56466384       3.90569169       7.40819840       0.12942844       0.23716918       0.02844434       0.08475337       2.02630066      -3.13800431
I       13.89046581       9.85018790       5.95943794      -0.09061837       0.00096253      -0.06027621      -0.15397099      -3.61243172      -7.62028133
I        8.60629882      14.34343359       6.18338717       0.10464366      -0.47073101      -0.92461625      -0.12335766      -1.23522900      -0.32360856
I       13.87888330      10.12528533       1.69561907      -0.04928580       0.21992381      -0.36713999       4.28979660       6.49197955       0.09197415
I        8.57816086      14.32467053       1.88739551       0.20793420       0.20688444      -0.06423656       2.01805502       3.89213596      -5.19495734
I       12.83005622      13.15843084       8.94906477      -0.07294657       0.27225519      -0.37941708      -3.76562211      -0.01316333      -3.42213959
I       10.23060479      11.25789016       3.45716623      -0.24065619      -0.15814305       0.10638366      -3.55866565      -1.63133285      -5.13981001
Cs       1.75585056       4.51494676      12.06626293       0.08992242      -0.14796994      -0.07223662      -2.07507182       3.21016648       3.50488064
Cs       6.11880656       6.67188840      16.64972913      -0.29696859       0.02708731      -0.16606697       1.45461693       5.09501322       1.38000490
Cs       1.70279231      10.71791758       7.19749716      -0.25763739      -0.07566410       0.22115958      -1.44166835       1.23767071      -3.36203636
Cs       5.15986710      13.31282316      12.08032083       0.09556012       0.18929807       0.05430147       2.53920440       2.82994971      -1.87199761
Cs       9.07484331       3.68570962      11.64924852      -0.12653357      -0.00113553       0.08189517       3.59447025       3.72456302       2.29517789
Cs      13.12755481       6.57876094      16.08407645       0.06685331      -0.18963737       0.06093123       1.01107452       2.08185085      -1.56316316
Cs       9.50538237      11.49959456       7.56344350      -0.11195164      -0.27300002       0.20924291      -1.94475690       1.14414557      -1.16586939
Cs      12.73664464      13.97568457      11.91897012      -0.05556939      -0.02466360       0.00504870       2.33880014       1.12293065       1.78948270
Pb       2.27679137      15.64881438      16.07284857       1.02088966      -0.19760411      -0.11562692      -1.57940181      -2.41330112       3.39226319
Pb       6.31198441      15.68720339      16.59375411      -0.12513047      -0.58189574      -0.32587360      -5.04693439       0.35564367       4.91253166
Pb       4.27829149       9.15178489      12.05171629      -0.22000020      -0.60654455      -0.06360327       4.83387965      -0.01034207      -6.36707030
Pb       0.04859102       8.76846064      11.79580970       0.40639790      -0.50740483       0.40824249       0.30389893      -4.56025010      -0.35333883
Pb      10.22230444      15.60414994      16.57880846      -0.16485299       0.37925680      -0.55479340      -1.93570179      -1.50210845      -5.21344379
Pb      14.20036466      16.16233897      16.40823039       0.21712927       0.26830020       0.37904396      -1.13815688      -6.01086910      -0.04827473
Pb      12.15618960       8.48254169      12.25758525      -0.32226455       0.09128753      -0.37124818      -0.13010256      -2.44433717       6.18633115
Pb       8.06036184       8.76244403      12.23484527       0.13158963      -0.01274606      -0.62247892       3.45835769      -1.30974643       6.85548099
I        5.29160651       2.84474763       9.79258587      -0.31390967      -0.26965167      -0.37452053      -2.48100391       1.27833790       2.50942169
I        2.18757454       7.72719685       9.70037376       0.44088453       0.19993321       0.57526534      -4.38462748      -2.77443496      -1.89672278
I        4.62359960       2.40311101      13.92656691       0.32204717       0.27999347      -0.12443346       0.83296573       0.05707479       2.12788452
I        2.39515982       7.54870287      14.05372592      -0.12005410      -0.03846921       0.35468216      -0.20562130      -4.06438978      -0.85009727
I        6.07769082       6.22222547      12.15850663      -0.16691824       0.09944005       0.06008045       0.40600026       1.54664325      -3.26951676
I        0.19846886       4.06913557      16.07086198       0.49951969      -0.27856710      -0.02112831       3.45163393       0.96553214       1.02150405
I        6.62398234      10.38776963      14.32974115      -0.43543214      -0.18549031      -0.28153400      -1.59295064      -1.76290972       0.29602887
I        0.59809013      15.09725933      13.45780468      -0.33086803      -0.12911722       0.57751491       1.20901007      -3.35613801       2.48357854
I        6.17776408      10.29098432       9.88501191       0.28488790      -0.07598144      -0.07779029      -0.92286400       1.79382911      -4.05753370
I        0.76818529      14.22185437       9.68316812       0.23112757       0.01731865       0.14005348      -1.85739662      -1.12451326       0.89028871
I        4.31890113      12.99782770      16.25759438      -0.55823004       0.34927719       0.15942189      -2.39768951      -0.05868883       2.58894010
I        2.00427974      11.25440447      11.80160339      -0.11322853       0.36516428       0.22358645      -2.21709500       0.25277935       1.84209858
I       11.83603968       2.39289427       9.95587068       0.25072025       0.49718994       0.43477375       1.44511022      -1.97715552      -2.20328200
I       10.36611852       7.43501440       9.93783392      -0.33697850      -0.13969617      -0.14445776      -3.29307893       2.94302550       3.98705431
I       12.42166099       2.88177964      13.98475289      -0.33871190       0.02497352       0.00244165      -1.12833484       0.24981760       4.38378483
I        9.77759807       7.50899690      14.38517608       0.39576360      -0.30316830       0.08198353       4.14035635       0.69099516      -1.40377225
I       14.58807912       6.09452777      11.66765972      -0.48998433      -0.26936322       0.08988572      -4.04185193      -0.70362175       0.76885045
I        8.51848295       3.78119374      16.34816214      -0.08389268      -0.56050527      -0.19959501       0.17652070      -4.62370227      -0.82378338
I       13.94343411       9.80678622      14.18210707       0.32872582       0.23092784       0.61843932      -3.43153817      -0.34333896       2.74981086
I        8.05790986      13.99600579      14.30934940       0.28677856       0.47256634       0.58329064       2.12669821       2.49149164      -5.89242392
I       14.36051529       9.86163159       9.99232401      -0.54035972       0.18983796      -0.14817510      -2.92199618       0.33386035      -4.25296431
I        9.22218897      14.10841347      10.38601756      -0.21440948       0.40978963      -0.31845011       0.24653017       0.37094789      -1.15678466
I       12.47818460      13.35583556      16.07256840       0.28841851       0.05902812       0.20774603       1.83511249      -3.49534311       4.22930557
I       10.23750636      10.98580658      12.35350310       0.32460176       0.05320880      -0.01455765       1.11505444      -0.24228443       0.00703343
Cs       1.29301832      17.87709681       3.31741121       0.19693086      -0.01628492       0.20118670      -0.68314203      -3.10221705      -0.57760387
Cs       4.94608288      19.96955264       7.66529753       0.07917010       0.18019015      -0.03320010      -0.56188121      -1.10646294      -0.85539197
Cs       1.01881639      25.18529628      16.01398294       0.17884034       0.25282231      -0.09216841      -2.30050469       0.52584666       0.28064697
Cs       5.85783959      28.22185940       3.06781121      -0.15544042      -0.19955029       0.21046860       0.81858947       1.11852969       0.81972133
Cs       9.00657163      18.39677810       3.81112034       0.04970881      -0.26867729       0.00824011       2.63407981      -4.00445023       0.91472476
Cs      13.91701059      21.04236360       7.91170787      -0.19109146      -0.13679867       0.03316046      -2.90990175      -0.79306971      -5.64849658
Cs       9.40692017      25.23671613      15.61957198       0.18716808      -0.00149779       0.33428875      -4.46686131       1.25913933      -8.01043714
Cs      12.90735333      27.50976072       3.93374927       0.27462750       0.31770313      -0.14157966       4.28192842       2.54390048       1.23133309
Pb       2.71613379       1.77619477       7.59406860       0.02372449      -0.06783596       0.30345139       1.99003678      -1.37904843      -2.23015352
Pb       6.89546413       1.14023518       7.36221020      -0.43011344       0.13095184       0.53386059       5.03059427       5.35714738       0.45893449
Pb       4.06052669      22.98529888       2.95250188       0.57440103       0.94939174       0.29072536       0.12748106      -2.18910338      -0.22817940
Pb       0.21381293      23.49072320       3.10041028       0.25246113       0.23430040       0.03336732       1.77109016      -3.03503406      -4.39921724
Pb      10.55225494       1.51048372       7.26426118      -0.11694521      -0.26905567       0.19265682       3.27096293      -1.94803817      -7.48177046
Pb      14.40448778       1.70250600       7.98022489       0.56704038      -0.13311799      -0.42202355      -3.54881141       6.28241104      -1.80694113
Pb      11.95872397      22.23356225       3.90307361       0.19741623       0.47584179      -0.16864303      -0.17814152      -1.29889847      -1.74399289
Pb       8.23284101      22.70822129       3.28310627      -0.68786677       0.00251034       0.07471801      -1.84559510       2.13339407      -2.69113071
I        4.38783238      17.12156981       1.62101056      -0.28526972      -0.25229548      -0.17529438       0.60429632      -1.25125114       1.93520406
I        2.22050699      22.24877473       0.61818049      -0.31432623       0.02802261       0.10025594      -0.20085822      -0.62143895      -5.88536739
I        5.45967427      17.01176267       5.90738861      -0.45863479      -0.08810359      -0.28366293       2.58662925      -1.49004449      -0.55593397
I        2.19654278      21.98705538       5.13516387      -0.01545697      -0.40196120       0.26075139      -4.15119233       1.09423815      -2.74773461
I        5.79642967      20.24788172       2.51879877       0.16338162       0.66147341       0.16235088       2.97566152      -0.39264293       0.53868296
I        0.75797303      18.82162119       7.84701803       0.30037542      -0.96937698      -0.17862279       0.00777642       2.04090677       2.11694607
I        6.13945855      23.77109699       5.56691260       0.04054356      -0.02323441      -0.15964584      -4.10127557       0.83442408      -1.22836801
I        0.68210810       0.90485591       4.98312844       0.15733925       0.33549588       0.47241986      -0.91102271       3.72509074      -0.87794998
I        6.75241929      24.61988238       1.11014113      -0.09343128      -0.29224333       0.49112295       0.16038370       1.09341769      -1.52345717
I        0.72365491      -0.07990646       0.75145547      -0.05029114      -0.11879387       0.37967974      -2.72007186       5.57391518       0.05340436
I        4.54095189      27.98926200       8.03578140       0.23781194      -0.65621985      -0.24502959      -2.34489127      -1.08540409      -0.79589239
I        2.56808491      26.18281805       4.12954084      -0.03102775      -1.11010196      -0.39088763       1.70239813       1.92063331       0.91999479
I       12.09010095      17.87339359       1.58780692       0.22798464      -0.53802429      -0.55252844       1.05184389       0.99999246       2.77522209
I       10.48790299      21.44924939       1.21268698      -0.07603710      -0.02922110       0.18333352      -1.67428046      -4.75280284      -1.74393159
I       12.80707757      16.41500704       5.31529720      -0.10045518       0.23757310       0.07336655      -0.18078417       2.24693217      -1.26716900
I        9.85535099      21.13993939       5.94451109      -0.12368024      -0.04825111      -0.08544215       2.88797937      -0.23584666      -0.35969097
I       14.56180558      20.24506321       4.09614198      -0.18937010       0.03539229      -0.06586938       1.94419927      -3.32621919      -0.93414652
I        8.41175394      18.15358534       8.26789029       0.38471874       0.30383047       0.01951051      -3.46754427      -5.12706729      -1.41457521
I       13.91577959      24.06181227       6.12775219      -0.13378813       0.09129730       0.07341684       1.52958320       0.81833222       1.53926886
I        8.73992912      -0.21418217       5.19809253      -0.03773344       0.03154516      -0.28308700      -2.78226021      -2.25941373      -0.74673614
I       13.59789656      24.27067441       1.78774213       0.10054129      -0.11794911       0.01149915      -4.62858477       3.87587986      -6.15945181
I        8.98546535       0.07662908       1.46511054      -0.11842335      -0.07584838      -0.42089986       0.50374285       1.09963490      -0.14448380
I       12.57353145      27.94530131       7.29902205       0.38085375      -0.17516882       0.13033097      -2.42979387       3.45395527       0.56867493
I       10.31935753      25.10892470       3.54815495      -0.28615391      -0.19856196       0.08821141      -0.37015070       1.79739457       2.41837368
Cs       1.44608090      17.48606927      11.79255180      -0.05842053       0.26818506      -0.00839830       1.27226737      -0.62359929       4.45886091
Cs       5.09428630      21.20899917      15.86452911       0.19843498      -0.32420715      -0.04438279      -2.00458700       1.85788843       3.59681546
Cs       1.85020860      25.07896017       7.22489793      -0.12088565       0.18937285       0.20346268       0.37514156       3.16729358       3.91738044
Cs       5.46343876      27.98241452      12.00797955      -0.22447997      -0.05254153      -0.14711806      -3.31316649       1.72717955       0.80198144
Cs       8.94037550      18.14731959      12.17546851       0.09745037      -0.18630207       0.05656158      -0.17517767       4.31056832      -0.15907671
Cs      13.57420650      20.80121370      16.36447660      -0.19013645      -0.00330891       0.00333531       1.32909935      -2.08114465      -1.16911280
Cs       9.50977960      25.26003279       7.16425139      -0.01275264      -0.04905654       0.19877121      -3.21366049       0.07777767      -3.00086608
Cs      12.45198205      28.44740634      12.23802847       0.13543406      -0.05854975       0.08287698       0.67414348      -1.91041120       5.36484138
Pb       2.68725248       1.29250336      16.06145209      -0.28687000       0.46749850       0.20959839      -3.77020644       6.45812656       0.45305424
Pb       6.47736384       1.05529126      16.11755801       0.60322256       0.33376746       0.00406911      -5.53364446      -1.39566997       2.39758507
Pb       4.00514051      22.86931516      11.86584588      -0.49089666       0.00795032      -0.00479602      -1.62096168      -0.20964611       2.09097186
Pb       0.19680539      22.76965134      11.53214234      -0.13598469       0.34579637      -0.07347965       1.25174395       0.74847470       3.18096430
Pb      10.45239588       1.07967201      15.97410327       0.26008984       0.08403681       0.06244062       3.68286932      -0.10709716      -1.46363688
Pb      14.34531597       1.66982391      16.34316674      -0.06116460      -0.77963628      -0.14343357      -2.18511613      -2.07699079      -0.90496365
Pb      11.92813415      23.18534464      12.52322658      -0.51559419      -0.87852533      -0.14194417       1.37533390      -1.40440042       4.78814862
Pb       7.71707264      23.03153412      12.18145243       0.60303144      -0.64075305      -0.12908288       2.95058409       6.69871871      -0.93514254
I        4.66453613      17.37430208       9.79180877      -0.35705936      -0.14524381       0.32055652      -3.19756959      -1.29786785      -0.12838700
I        2.30927853      21.41153596       9.49318851      -0.06949114       0.23679140       0.10488747       1.44485571       2.68942491       0.10860615
I        4.94304475      16.84731474      13.93721203      -0.68341565      -0.26068926       0.56156575       1.90014156       3.98893860      -4.65818030
I        1.49033220      21.36073018      13.79856961       0.40419992       0.16168116      -0.06436628       0.01417935      -3.80767373      -4.28703658
I        5.86878717      20.33101053      12.30161040       0.13247469       0.09812164      -0.01386291      -2.80872486       1.43220782       5.08358254
I        0.38282321      18.27717057      16.05649564       0.31334571       0.54991467       0.28210318      -0.28482688      -3.32756040       0.09278567
I        5.54979503      24.45983747      14.30255287       0.24905015      -0.18685328      -0.53235075       1.83894803      -3.41653163      -0.66906770
I        1.29500724       0.40060356      13.51649437      -0.52678241      -0.03890915       0.12370705       0.02988096      -1.88867921      -0.05788924
I        5.99422934      23.69623425       9.60447329      -0.07051095       0.45370822      -0.23115015       0.66711372      -2.91111521      -1.59175764
I        0.62366079       0.48358848       9.82151627       0.10761392      -0.10890481      -0.31150994      -1.58966846       0.61457062       4.14884796
I        4.47932620      27.48940750      16.27898578      -0.07518420       0.32862070       0.11282430       3.31716221       2.46323793      -6.28161150
I        2.07179216      25.50018672      11.22616063       0.04805861      -0.00507632       0.13953379      -0.71979960       2.84428952       0.31668372
I       12.58017523      17.47288782       9.92839180       0.11118649      -0.03385133      -0.05829994       2.78548143      -0.80151754       1.55998521
I       10.41781321      21.91598762      10.00359447      -0.50646562       0.25261910       0.35214386      -2.83723289      -1.05489664       0.76875455
I       12.08344354      17.38728444      14.25877747      -0.14404780      -0.29076612       0.34228936       1.71041766      -0.44285467      -0.17861156
I        9.67122470      21.29537274      14.21104154       0.03389200       0.02092552       0.13321254      -0.96447115      -4.25358137      -3.50556569
I       14.13298130      20.24824177      11.91967481      -0.55532633       0.46166121       0.09133988       0.94438218       3.05014239       1.03856090
I        7.98924932      18.03063335      16.71137567       0.26533210       0.46899514      -0.07545561       3.77089897      -0.38878571       1.86500981
I       13.95738815      24.04995036      14.75462515       0.05727426       0.06516441       0.05022542      -1.67546718       1.97806902      -2.45294802
I        8.20919101      -0.11161381      13.49932375       0.30524014       0.36526147       0.76564493       1.22278063       1.46192751       0.78393078
I       13.33112604      24.64158580      10.29635953       0.34951366       0.17788632      -0.15696630       0.23906736       1.77256591      -2.86227349
I        8.73383286      -0.46883077       9.66482583       0.13994732       0.43493252      -0.69770377       1.50807043      -4.82991982      -2.00479376
I       12.98940878      27.61389511      16.83063203      -0.75739193      -0.01853916      -0.31905231       4.88426182      -0.99496523       2.20741707
I        9.74865511      25.42344098      12.98757934       0.17249818       0.04017190      -0.21894213       1.49000840      -0.98173021       2.79583215
Cs      17.89567488       4.38359027       3.98359165      -0.14640690      -0.23308515      -0.16895233      -0.00708386      -2.85774321      -0.89399647
Cs      21.11705354       6.64652744       7.74980470       0.24366065      -0.34945208       0.08877080       1.58804966       4.10887567      -1.68563959
Cs      17.16466958      11.06570335      16.51849340      -0.07329079       0.03708420      -0.04051764       1.53304362      -0.96938400       5.35506575
Cs      21.65621672      12.90696770       3.17532481      -0.11394450       0.07788184       0.02208793      -0.59005377       1.32630497       2.06304313
Cs      24.88284400       3.81313709       3.61550909      -0.00705545      -0.13448847      -0.11638136       5.33575663      -2.40031575       1.87067418
Cs      28.37203478       5.96004925       7.81832996       0.20027428       0.00656795      -0.04079954      -1.71741301      -3.48345770       3.18769783
Cs      25.11860865      10.69548681      16.15979435      -0.02566847      -0.02541012      -0.06716268       2.40641551       3.81960080       0.44200576
Cs      28.54585171      13.43613441       3.56101611       0.02978445       0.00342061      -0.02653296       1.71985622       2.88868949       4.76134550
Pb      18.57036199      15.45112436       7.74850548       0.83665266       0.28817782       0.28494366       3.56550884       0.93289905       2.47727514
Pb      22.43454461      15.51016687       7.89880175       0.16897987      -0.40368942      -0.67984694       0.95056268      -2.82663771      -0.48840166
Pb      19.68012284       8.45402841       3.38692066      -0.15830942       0.81488132       0.07055324       5.07050309      -1.29006333      -5.24136099
Pb      15.71412224       8.74074638       3.74029961       0.53575152       0.16380920      -0.10984255       6.20558945       3.99644764      -5.61188556
Pb      26.67281260      15.54961690       7.76849410      -0.12947790      -0.04142294      -0.51246303      -0.39252505      -1.18367301       0.72819462
Pb      30.43421198      15.95265952       7.87844105       0.06074846       0.12526499      -0.20346882      -7.54688028      -2.56873085       1.04938576
Pb      27.27547134       8.48616282       3.17729070       0.68834929      -0.34126891       0.32230894      -1.78017100      -0.52598785       0.59550632
Pb      23.45898908       8.40031600       3.40166267       0.39631380      -0.00249486       0.06091563      -0.76615059       5.01070265       3.76404706
I       20.65632761       1.94795286       1.54239683      -0.29332922       0.24445507       0.51051841      -0.30385270       2.24282320      -0.20725243
I       17.81468609       7.81355605       0.98679888      -0.45743728      -0.05431241       0.30854368      -4.14958123      -2.33622720       0.02026920
I       20.69993869       3.07420742       6.34435469       0.00110122      -0.02878192      -0.40974411      -4.73567041      -0.21779508      -0.12867938
I       18.06032293       7.20946992       5.67414168      -0.26586867      -0.07869502      -0.11575937      -3.87469781       2.20990466      -2.97141554
I       21.48754491       5.97336088       3.08194003       0.00316827      -0.39671265       0.02462416       2.17168046      -0.60887138       1.58691975
I       16.72752711       4.22337716       8.51882371      -0.37175228      -0.31104132       0.04185544      -0.79547341       0.54225417      -2.35780906
I       21.73661739       9.46309343       5.83413711       0.12251576       0.00943868      -0.11344089      -4.80553017       1.20034409      -1.89095655
I       16.43584645      14.30078957       5.79724150       0.21203271       0.08341595      -0.21257818      -3.56634506       0.44939208      -3.02914461
I       21.90307802       9.83212807       1.15748862      -0.22380711       0.20781294       0.21438012       1.24917360      -3.68228661      -5.25285471
I       16.43994537      14.79373686       1.76836811      -0.02053989       0.15998425      -0.57258193       1.59203463       3.89069113      -2.36226558
I       20.38241551      12.78684018       7.00850846      -0.00521461       0.56450452       0.20624850       1.29185845       3.22219361       3.39827514
I       17.84897208      11.30136225       3.84195541       0.17971336      -0.41076964      -0.10011086      -1.10627448      -2.45153915       4.68790913
I       28.43889150       2.25274926       1.57379386       0.13551613      -0.04738145      -0.30842391       3.27208233       0.93476096      -1.05562455
I       25.32610423       7.47007151       0.76137647       0.10370242       0.16666194       0.44784242       0.56699761      -2.13768795      -1.03439480