320
Lattice="35.78794042575779 -0.37839846603646177 -0.24217113649280456 0.2257959835333163 21.00955516298944 -0.015306901360210465 0.11054213265190213 0.01896394099226511 19.312856914076352" Properties=species:S:1:pos:R:3:forces:R:3:momenta:R:3 pbc="T T T"
Cs       7.40352722       4.09528421       6.55182693      -0.06896157      -0.04479846      -0.00679199      -0.30551782      -0.88475686       4.72388226
Cs      13.67529045      12.77349130       4.15889460      -0.08880145      -0.07549056       0.00001681      -0.35279219      -1.49074786      -0.04516187
Cs       4.38202280       9.50300728       6.54044010       0.22463173      -0.08214889       0.18306344      -1.34948363       0.06359018      -0.62179371
Cs      16.29865385       7.61151218       4.01206154       0.07119849      -0.17545647       0.16649368      -0.29166158      -2.23455037      -1.07237010
Cs       7.22177980       4.10349344      11.40982703       0.09931534      -0.05052275      -0.01168183      -0.64753844      -1.97993447      -2.30497350
Cs      13.50429471      12.82867801       9.08042629       0.14627975      -0.08307136      -0.09764933      -0.14263020      -1.05663017      -1.30395704
Cs       4.78751798       9.32603094      11.50320854      -0.07474620       0.02055733      -0.20731187      -1.17273629       1.08091148      -1.52690734
Cs      16.36776228       7.29060609       9.02845974       0.09774119       0.10315552      -0.11168122       0.20052753      -0.76401937      -0.53090576
Pb       2.61569394       4.87136997       4.26336582      -0.25479272      -0.16664423       0.21842264       1.33908174       5.41276236       2.74511918
Pb      18.22581017      11.96537019       6.33184004       0.47676083      -0.25493705       0.40618480      -1.04716110       0.26703976      -0.14140908
Pb       9.32640770      10.04854762       4.28992201       0.15778311       0.07273963      -0.01081618      -0.07254724       3.59726753      -0.73422247
Pb      11.48038439       6.59282265       6.39662901      -0.14873487       0.13326866       0.04162201       0.55965983       1.95766304      -0.28450977
Pb       2.54460699       4.92046735       9.14740821       0.20356916      -0.11718451      -0.25657833       3.62725934       1.38877160      -0.53982156
Pb      18.46439578      11.81920132      11.31729061       0.06086933       0.03951850      -0.18793927      -0.02576631      -0.74498408      -1.52390813
Pb       9.55571328      10.23575368       9.08922063      -0.39127982      -0.04291273      -0.08378233      -1.06618442      -1.63217531       0.97773856
Pb      11.57839082       6.93875083      11.10608914       0.07111810      -0.41789174       0.27580964      -2.55142303      -2.59234500       1.67243058
I        1.71936589       6.89557679       6.61578224      -0.28040313      -0.13715784       0.18052666      -0.59633650       0.30138184      -0.37997352
I        1.66832200      10.24178492       4.18963614      -0.14210677      -0.12122367      -0.16404381       0.15419438      -1.43499113       4.15068809
I       10.63275055      11.90866207       6.65493730      -0.00990470       0.14205353      -0.21416100       0.96281080       0.92597707      -0.94345796
I       10.34001141       4.89818702       3.98887791       0.10383088       0.12333260      -0.03505908      -1.64494945       1.79234654      -1.19797501
I       17.30379076       3.38284287       4.20143083      -0.10639393       0.16644594      -0.27939667       1.72910999      -2.39068870       0.07435135
I        3.46714220      13.27627657       6.72509681       0.16268322       0.21123979      -0.07511358       1.08341781      -0.58616347       3.44905344
I       12.47393791       8.65805369       4.01267484      -0.02627597       0.08744406       0.15321262       0.44163247      -1.00180717       1.38496811
I        8.24895841       8.19782312       6.80284910       0.39593035      -0.06104884      -0.33310272       0.70927661      -0.58596155      -1.42018231
I        5.18784098       6.29851275       4.15652550       0.43836931       0.18786752       0.08347659       0.88560336      -0.16186289       1.65233192
I       15.70226937      10.33120579       6.52908575      -0.43812388      -0.02706280       0.05078779       1.23452452       0.98216600       0.03899878
I        6.67563399      11.55746680       4.27944450       0.01075748       0.10792293      -0.07215330      -1.03147123       1.02508148       1.92317095
I       14.17595327       5.07351668       6.65177818       0.01234502       0.23707079      -0.12821380       1.22518278       0.77366343       0.53071743
I        1.69113452       6.77595454      11.51431824      -0.24987517       0.12605736       0.05510521       1.10486239       2.07166593       1.01200412
I        1.60435668      10.16264528       9.01219674      -0.13188857       0.16923033       0.15213567       0.47616653       0.21924875       0.77401586
I       10.66015947      12.01590559      11.37910932      -0.14583667      -0.08346234       0.39823366      -0.20974456      -0.32588249       1.69042045
I       10.34680495       4.86691925       8.94108665       0.04280295       0.10143688      -0.04462340       0.91550835      -0.81980009      -0.90029044
I       17.38524145       3.31454181       8.81211506      -0.08499715       0.18683398       0.20337079       0.67332534      -1.12515030      -1.10781086
I        3.59650544      13.31890623      11.63114925       0.09599325       0.05924264      -0.32157986      -1.46698716      -1.33933552       1.34050359
I       12.54080007       8.85077547       8.76198789       0.05962939      -0.22809088       0.01955942       0.06416931       2.05965776       1.19604391
I        8.47498303       8.17436839      11.47202687       0.05013856      -0.09501900      -0.03775809      -1.69609375      -1.47911057       0.93386790
I        5.32471280       6.30054711       8.87272052      -0.04841404       0.06136838       0.10821323      -2.72011331       2.42035383      -0.69426564
I       15.68138745      10.51618678      11.27156391      -0.13033212      -0.13520273       0.04722213       1.35001324      -1.75097030      -1.56874582
I        6.75551164      11.68961221       9.02700073       0.03678098      -0.08262539      -0.01765729       0.59155579      -0.71871298       0.29585312
I       14.30531764       5.22621377      11.43617908      -0.19665969       0.14516586      -0.04636182       1.04738983       1.70368267       1.32957201
Cs       7.45879829       4.10476618      16.20825539      -0.06896157      -0.04479846      -0.00679199      -0.30551782      -0.88475686       4.72388226
Cs      13.73056152      12.78297327      13.81532306      -0.08880145      -0.07549056       0.00001681      -0.35279219      -1.49074786      -0.04516187
Cs       4.43729387       9.51248925      16.19686856       0.22463173      -0.08214889       0.18306344      -1.34948363       0.06359018      -0.62179371
Cs      16.35392492       7.62099415      13.66849000       0.07119849      -0.17545647       0.16649368      -0.29166158      -2.23455037      -1.07237010
Cs       7.16650873       4.09401147       1.75339857       0.09931534      -0.05052275      -0.01168183      -0.64753844      -1.97993447      -2.30497350
Cs      13.55956578      12.83815998      18.73685475       0.14627975      -0.08307136      -0.09764933      -0.14263020      -1.05663017      -1.30395704
Cs       4.73224691       9.31654897       1.84678008      -0.07474620       0.02055733      -0.20731187      -1.17273629       1.08091148      -1.52690734
Cs      16.42303335       7.30008806      18.68488820       0.09774119       0.10315552      -0.11168122       0.20052753      -0.76401937      -0.53090576
Pb       2.67096501       4.88085194      13.91979428      -0.25479272      -0.16664423       0.21842264       1.33908174       5.41276236       2.74511918
Pb      18.28108124      11.97485216      15.98826850       0.47676083      -0.25493705       0.40618480      -1.04716110       0.26703976      -0.14140908
Pb       9.38167877      10.05802959      13.94635047       0.15778311       0.07273963      -0.01081618      -0.07254724       3.59726753      -0.73422247
Pb      11.53565546       6.60230462      16.05305747      -0.14873487       0.13326866       0.04162201       0.55965983       1.95766304      -0.28450977
Pb       2.59987806       4.92994932      18.80383667       0.20356916      -0.11718451      -0.25657833       3.62725934       1.38877160      -0.53982156
Pb      18.40912471      11.80971935       1.66086215       0.06086933       0.03951850      -0.18793927      -0.02576631      -0.74498408      -1.52390813
Pb       9.61098435      10.24523565      18.74564909      -0.39127982      -0.04291273      -0.08378233      -1.06618442      -1.63217531       0.97773856
Pb      11.52311975       6.92926886       1.44966068       0.07111810      -0.41789174       0.27580964      -2.55142303      -2.59234500       1.67243058
I        1.77463696       6.90505876      16.27221070      -0.28040313      -0.13715784       0.18052666      -0.59633650       0.30138184      -0.37997352
I        1.72359307      10.25126689      13.84606460      -0.14210677      -0.12122367      -0.16404381       0.15419438      -1.43499113       4.15068809
I       10.68802162      11.91814404      16.31136576      -0.00990470       0.14205353      -0.21416100       0.96281080       0.92597707      -0.94345796
I       10.39528248       4.90766899      13.64530637       0.10383088       0.12333260      -0.03505908      -1.64494945       1.79234654      -1.19797501
I       17.35906183       3.39232484      13.85785929      -0.10639393       0.16644594      -0.27939667       1.72910999      -2.39068870       0.07435135
I        3.52241327      13.28575854      16.38152527       0.16268322       0.21123979      -0.07511358       1.08341781      -0.58616347       3.44905344
I       12.52920898       8.66753566      13.66910330      -0.02627597       0.08744406       0.15321262       0.44163247      -1.00180717       1.38496811
I        8.30422948       8.20730509      16.45927756       0.39593035      -0.06104884      -0.33310272       0.70927661      -0.58596155      -1.42018231
I        5.24311205       6.30799472      13.81295396       0.43836931       0.18786752       0.08347659       0.88560336      -0.16186289       1.65233192
I       15.75754044      10.34068776      16.18551421      -0.43812388      -0.02706280       0.05078779       1.23452452       0.98216600       0.03899878
I        6.73090506      11.56694877      13.93587296       0.01075748       0.10792293      -0.07215330      -1.03147123       1.02508148       1.92317095
I       14.23122434       5.08299865      16.30820664       0.01234502       0.23707079      -0.12821380       1.22518278       0.77366343       0.53071743
I        1.63586345       6.76647257       1.85788978      -0.24987517       0.12605736       0.05510521       1.10486239       2.07166593       1.01200412
I        1.65962775      10.17212725      18.66862520      -0.13188857       0.16923033       0.15213567       0.47616653       0.21924875       0.77401586
I       10.60488840      12.00642362       1.72268086      -0.14583667      -0.08346234       0.39823366      -0.20974456      -0.32588249       1.69042045
I       10.40207602       4.87640122      18.59751511       0.04280295       0.10143688      -0.04462340       0.91550835      -0.81980009      -0.90029044
I       17.44051252       3.32402378      18.46854352      -0.08499715       0.18683398       0.20337079       0.67332534      -1.12515030      -1.10781086
I        3.54123437      13.30942426       1.97472079       0.09599325       0.05924264      -0.32157986      -1.46698716      -1.33933552       1.34050359
I       12.59607114       8.86025744      18.41841635       0.05962939      -0.22809088       0.01955942       0.06416931       2.05965776       1.19604391
I        8.41971196       8.16488642       1.81559841       0.05013856      -0.09501900      -0.03775809      -1.69609375      -1.47911057       0.93386790
I        5.37998387       6.31002908      18.52914898      -0.04841404       0.06136838       0.10821323      -2.72011331       2.42035383      -0.69426564
I       15.62611638      10.50670481       1.61513545      -0.13033212      -0.13520273       0.04722213       1.35001324      -1.75097030      -1.56874582
I        6.81078271      11.69909418      18.68342919       0.03678098      -0.08262539      -0.01765729       0.59155579      -0.71871298       0.29585312
I       14.25004657       5.21673180       1.77975062      -0.19665969       0.14516586      -0.04636182       1.04738983       1.70368267       1.32957201
Cs       7.51642521      14.60006179       6.54417348      -0.06896157      -0.04479846      -0.00679199      -0.30551782      -0.88475686       4.72388226
Cs      13.56239246       2.26871372       4.16654805      -0.08880145      -0.07549056       0.00001681      -0.35279219      -1.49074786      -0.04516187
Cs       4.49492079      20.00778486       6.53278665       0.22463173      -0.08214889       0.18306344      -1.34948363       0.06359018      -0.62179371
Cs      16.41155184      18.11628976       4.00440809       0.07119849      -0.17545647       0.16649368      -0.29166158      -2.23455037      -1.07237010
Cs       7.33467779      14.60827102      11.40217358       0.09931534      -0.05052275      -0.01168183      -0.64753844      -1.97993447      -2.30497350
Cs      13.39139672       2.32390043       9.08807974       0.14627975      -0.08307136      -0.09764933      -0.14263020      -1.05663017      -1.30395704
Cs       4.90041597      19.83080852      11.49555509      -0.07474620       0.02055733      -0.20731187      -1.17273629       1.08091148      -1.52690734
Cs      16.48066027      17.79538367       9.02080629       0.09774119       0.10315552      -0.11168122       0.20052753      -0.76401937      -0.53090576
Pb       2.72859193      15.37614755       4.25571237      -0.25479272      -0.16664423       0.21842264       1.33908174       5.41276236       2.74511918
Pb      18.11291218       1.46059261       6.33949349       0.47676083      -0.25493705       0.40618480      -1.04716110       0.26703976      -0.14140908
Pb       9.43930569      20.55332520       4.28226856       0.15778311       0.07273963      -0.01081618      -0.07254724       3.59726753      -0.73422247
Pb      11.59328238      17.09760023       6.38897556      -0.14873487       0.13326866       0.04162201       0.55965983       1.95766304      -0.28450977
Pb       2.65750498      15.42524493       9.13975476       0.20356916      -0.11718451      -0.25657833       3.62725934       1.38877160      -0.53982156
Pb      18.35149779       1.31442374      11.32494406       0.06086933       0.03951850      -0.18793927      -0.02576631      -0.74498408      -1.52390813
Pb       9.66861127      20.74053126       9.08156718      -0.39127982      -0.04291273      -0.08378233      -1.06618442      -1.63217531       0.97773856
Pb      11.69128881      17.44352841      11.09843569       0.07111810      -0.41789174       0.27580964      -2.55142303      -2.59234500       1.67243058
I        1.83226388      17.40035437       6.60812879      -0.28040313      -0.13715784       0.18052666      -0.59633650       0.30138184      -0.37997352
I        1.78121999      20.74656250       4.18198269      -0.14210677      -0.12122367      -0.16404381       0.15419438      -1.43499113       4.15068809
I       10.51985256       1.40388449       6.66259075      -0.00990470       0.14205353      -0.21416100       0.96281080       0.92597707      -0.94345796
I       10.45290940      15.40296460       3.98122446       0.10383088       0.12333260      -0.03505908      -1.64494945       1.79234654      -1.19797501
I       17.41668875      13.88762045       4.19377738      -0.10639393       0.16644594      -0.27939667       1.72910999      -2.39068870       0.07435135
I        3.35424421       2.77149899       6.73275026       0.16268322       0.21123979      -0.07511358       1.08341781      -0.58616347       3.44905344
I       12.58683590      19.16283127       4.00502139      -0.02627597       0.08744406       0.15321262       0.44163247      -1.00180717       1.38496811
I        8.36185640      18.70260070       6.79519565       0.39593035      -0.06104884      -0.33310272       0.70927661      -0.58596155      -1.42018231
I        5.30073897      16.80329033       4.14887205       0.43836931       0.18786752       0.08347659       0.88560336      -0.16186289       1.65233192
I       15.81516736      20.83598337       6.52143230      -0.43812388      -0.02706280       0.05078779       1.23452452       0.98216600       0.03899878
I        6.56273600       1.05268922       4.28709795       0.01075748       0.10792293      -0.07215330      -1.03147123       1.02508148       1.92317095
I       14.28885126      15.57829426       6.64412473       0.01234502       0.23707079      -0.12821380       1.22518278       0.77366343       0.53071743
I        1.80403251      17.28073212      11.50666479      -0.24987517       0.12605736       0.05510521       1.10486239       2.07166593       1.01200412
I        1.71725467      20.66742286       9.00454329      -0.13188857       0.16923033       0.15213567       0.47616653       0.21924875       0.77401586
I       10.54726148       1.51112801      11.38676277      -0.14583667      -0.08346234       0.39823366      -0.20974456      -0.32588249       1.69042045
I       10.45970294      15.37169683       8.93343320       0.04280295       0.10143688      -0.04462340       0.91550835      -0.81980009      -0.90029044
I       17.49813944      13.81931939       8.80446161      -0.08499715       0.18683398       0.20337079       0.67332534      -1.12515030      -1.10781086
I        3.48360745       2.81412865      11.63880270       0.09599325       0.05924264      -0.32157986      -1.46698716      -1.33933552       1.34050359
I       12.65369806      19.35555305       8.75433444       0.05962939      -0.22809088       0.01955942       0.06416931       2.05965776       1.19604391
I        8.58788102      18.67914597      11.46437342       0.05013856      -0.09501900      -0.03775809      -1.69609375      -1.47911057       0.93386790
I        5.43761079      16.80532469       8.86506707      -0.04841404       0.06136838       0.10821323      -2.72011331       2.42035383      -0.69426564
I       15.56848946       0.01140920      11.27921736      -0.13033212      -0.13520273       0.04722213       1.35001324      -1.75097030      -1.56874582
I        6.64261365       1.18483463       9.03465418       0.03678098      -0.08262539      -0.01765729       0.59155579      -0.71871298       0.29585312
I       14.41821563      15.73099135      11.42852563      -0.19665969       0.14516586      -0.04636182       1.04738983       1.70368267       1.32957201
Cs       7.57169628      14.60954376      16.20060194      -0.06896157      -0.04479846      -0.00679199      -0.30551782      -0.88475686       4.72388226
Cs      13.61766352       2.27819569      13.82297651      -0.08880145      -0.07549056       0.00001681      -0.35279219      -1.49074786      -0.04516187
Cs       4.55019186      20.01726683      16.18921511       0.22463173      -0.08214889       0.18306344      -1.34948363       0.06359018      -0.62179371
Cs      16.46682291      18.12577173      13.66083655       0.07119849      -0.17545647       0.16649368      -0.29166158      -2.23455037      -1.07237010
Cs       7.27940673      14.59878905       1.74574512       0.09931534      -0.05052275      -0.01168183      -0.64753844      -1.97993447      -2.30497350
Cs      13.44666778       2.33338240      18.74450820       0.14627975      -0.08307136      -0.09764933      -0.14263020      -1.05663017      -1.30395704
Cs       4.84514491      19.82132655       1.83912663      -0.07474620       0.02055733      -0.20731187      -1.17273629       1.08091148      -1.52690734
Cs      16.53593134      17.80486564      18.67723475       0.09774119       0.10315552      -0.11168122       0.20052753      -0.76401937      -0.53090576
Pb       2.78386300      15.38562952      13.91214083      -0.25479272      -0.16664423       0.21842264       1.33908174       5.41276236       2.74511918
Pb      18.16818324       1.47007458      15.99592195       0.47676083      -0.25493705       0.40618480      -1.04716110       0.26703976      -0.14140908
Pb       9.49457676      20.56280717      13.93869702       0.15778311       0.07273963      -0.01081618      -0.07254724       3.59726753      -0.73422247
Pb      11.64855345      17.10708220      16.04540402      -0.14873487       0.13326866       0.04162201       0.55965983       1.95766304      -0.28450977
Pb       2.71277605      15.43472690      18.79618322       0.20356916      -0.11718451      -0.25657833       3.62725934       1.38877160      -0.53982156
Pb      18.29622672       1.30494177       1.66851560       0.06086933       0.03951850      -0.18793927      -0.02576631      -0.74498408      -1.52390813
Pb       9.72388234      20.75001323      18.73799564      -0.39127982      -0.04291273      -0.08378233      -1.06618442      -1.63217531       0.97773856
Pb      11.63601775      17.43404644       1.44200723       0.07111810      -0.41789174       0.27580964      -2.55142303      -2.59234500       1.67243058
I        1.88753495      17.40983634      16.26455725      -0.28040313      -0.13715784       0.18052666      -0.59633650       0.30138184      -0.37997352
I        1.83649106      20.75604447      13.83841115      -0.14210677      -0.12122367      -0.16404381       0.15419438      -1.43499113       4.15068809
I       10.57512362       1.41336646      16.31901921      -0.00990470       0.14205353      -0.21416100       0.96281080       0.92597707      -0.94345796
I       10.50818047      15.41244657      13.63765292       0.10383088       0.12333260      -0.03505908      -1.64494945       1.79234654      -1.19797501
I       17.47195982      13.89710242      13.85020584      -0.10639393       0.16644594      -0.27939667       1.72910999      -2.39068870       0.07435135
I        3.40951527       2.78098096      16.38917872       0.16268322       0.21123979      -0.07511358       1.08341781      -0.58616347       3.44905344
I       12.64210697      19.17231324      13.66144985      -0.02627597       0.08744406       0.15321262       0.44163247      -1.00180717       1.38496811
I        8.41712747      18.71208267      16.45162411       0.39593035      -0.06104884      -0.33310272       0.70927661      -0.58596155      -1.42018231
I        5.35601004      16.81277230      13.80530051       0.43836931       0.18786752       0.08347659       0.88560336      -0.16186289       1.65233192
I       15.87043843      20.84546534      16.17786076      -0.43812388      -0.02706280       0.05078779       1.23452452       0.98216600       0.03899878
I        6.61800706       1.06217119      13.94352641       0.01075748       0.10792293      -0.07215330      -1.03147123       1.02508148       1.92317095
I       14.34412233      15.58777623      16.30055319       0.01234502       0.23707079      -0.12821380       1.22518278       0.77366343       0.53071743
I        1.74876145      17.27125015       1.85023633      -0.24987517       0.12605736       0.05510521       1.10486239       2.07166593       1.01200412
I        1.77252574      20.67690483      18.66097175      -0.13188857       0.16923033       0.15213567       0.47616653       0.21924875       0.77401586
I       10.49199041       1.50164604       1.73033431      -0.14583667      -0.08346234       0.39823366      -0.20974456      -0.32588249       1.69042045
I       10.51497401      15.38117880      18.58986166       0.04280295       0.10143688      -0.04462340       0.91550835      -0.81980009      -0.90029044
I       17.55341051      13.82880136      18.46089007      -0.08499715       0.18683398       0.20337079       0.67332534      -1.12515030      -1.10781086
I        3.42833638       2.80464668       1.98237424       0.09599325       0.05924264      -0.32157986      -1.46698716      -1.33933552       1.34050359
I       12.70896913      19.36503502      18.41076290       0.05962939      -0.22809088       0.01955942       0.06416931       2.05965776       1.19604391
I        8.53260996      18.66966400       1.80794496       0.05013856      -0.09501900      -0.03775809      -1.69609375      -1.47911057       0.93386790
I        5.49288186      16.81480666      18.52149553      -0.04841404       0.06136838       0.10821323      -2.72011331       2.42035383      -0.69426564
I       15.51321839       0.00192723       1.62278890      -0.13033212      -0.13520273       0.04722213       1.35001324      -1.75097030      -1.56874582
I        6.69788471       1.19431660      18.69108264       0.03678098      -0.08262539      -0.01765729       0.59155579      -0.71871298       0.29585312
I       14.36294457      15.72150938       1.77209717      -0.19665969       0.14516586      -0.04636182       1.04738983       1.70368267       1.32957201
Cs      25.29749743       3.90608498       6.43074136      -0.06896157      -0.04479846      -0.00679199      -0.30551782      -0.88475686       4.72388226
Cs      31.56926066      12.58429207       4.03780903      -0.08880145      -0.07549056       0.00001681      -0.35279219      -1.49074786      -0.04516187
Cs      22.27599301       9.31380805       6.41935453       0.22463173      -0.08214889       0.18306344      -1.34948363       0.06359018      -0.62179371
Cs      34.19262406       7.42231295       3.89097597       0.07119849      -0.17545647       0.16649368      -0.29166158      -2.23455037      -1.07237010
Cs      25.11575001       3.91429421      11.28874146       0.09931534      -0.05052275      -0.01168183      -0.64753844      -1.97993447      -2.30497350
Cs      31.39826492      12.63947878       8.95934072       0.14627975      -0.08307136      -0.09764933      -0.14263020      -1.05663017      -1.30395704
Cs      22.68148819       9.13683171      11.38212297      -0.07474620       0.02055733      -0.20731187      -1.17273629       1.08091148      -1.52690734
Cs      34.26173249       7.10140686       8.90737417       0.09774119       0.10315552      -0.11168122       0.20052753      -0.76401937      -0.53090576
Pb      20.50966415       4.68217074       4.14228025      -0.25479272      -0.16664423       0.21842264       1.33908174       5.41276236       2.74511918
Pb       0.33183996      12.15456942       6.45292561       0.47676083      -0.25493705       0.40618480      -1.04716110       0.26703976      -0.14140908
Pb      27.22037791       9.85934839       4.16883644       0.15778311       0.07273963      -0.01081618      -0.07254724       3.59726753      -0.73422247
Pb      29.37435460       6.40362342       6.27554344      -0.14873487       0.13326866       0.04162201       0.55965983       1.95766304      -0.28450977
Pb      20.43857720       4.73126812       9.02632264       0.20356916      -0.11718451      -0.25657833       3.62725934       1.38877160      -0.53982156
Pb       0.57042557      12.00840055      11.43837618       0.06086933       0.03951850      -0.18793927      -0.02576631      -0.74498408      -1.52390813
Pb      27.44968349      10.04655445       8.96813506      -0.39127982      -0.04291273      -0.08378233      -1.06618442      -1.63217531       0.97773856
Pb      29.47236103       6.74955160      10.98500357       0.07111810      -0.41789174       0.27580964      -2.55142303      -2.59234500       1.67243058
I       19.61333610       6.70637756       6.49469667      -0.28040313      -0.13715784       0.18052666      -0.59633650       0.30138184      -0.37997352
I       19.56229221      10.05258569       4.06855057      -0.14210677      -0.12122367      -0.16404381       0.15419438      -1.43499113       4.15068809
I       28.52672076      11.71946284       6.53385173      -0.00990470       0.14205353      -0.21416100       0.96281080       0.92597707      -0.94345796
I       28.23398162       4.70898779       3.86779234       0.10383088       0.12333260      -0.03505908      -1.64494945       1.79234654      -1.19797501
I       35.19776097       3.19364364       4.08034526      -0.10639393       0.16644594      -0.27939667       1.72910999      -2.39068870       0.07435135
I       21.36111241      13.08707734       6.60401124       0.16268322       0.21123979      -0.07511358       1.08341781      -0.58616347       3.44905344
I       30.36790812       8.46885446       3.89158927      -0.02627597       0.08744406       0.15321262       0.44163247      -1.00180717       1.38496811
I       26.14292862       8.00862389       6.68176353       0.39593035      -0.06104884      -0.33310272       0.70927661      -0.58596155      -1.42018231
I       23.08181119       6.10931352       4.03543993       0.43836931       0.18786752       0.08347659       0.88560336      -0.16186289       1.65233192
I       33.59623958      10.14200656       6.40800018      -0.43812388      -0.02706280       0.05078779       1.23452452       0.98216600       0.03899878
I       24.56960420      11.36826757       4.15835893       0.01075748       0.10792293      -0.07215330      -1.03147123       1.02508148       1.92317095
I       32.06992348       4.88431745       6.53069261       0.01234502       0.23707079      -0.12821380       1.22518278       0.77366343       0.53071743
I       19.58510473       6.58675531      11.39323267      -0.24987517       0.12605736       0.05510521       1.10486239       2.07166593       1.01200412
I       19.49832689       9.97344605       8.89111117      -0.13188857       0.16923033       0.15213567       0.47616653       0.21924875       0.77401586