320
Lattice="35.78794042575779 -0.37839846603646177 -0.24217113649280456 0.2257959835333163 21.00955516298944 -0.015306901360210465 0.11054213265190213 0.01896394099226511 19.312856914076352" Properties=species:S:1:pos:R:3:forces:R:3:momenta:R:3 energy=-980.507203536278 stress="0.0 0.0 0.0 0.0 0.0 0.0 0.0 0.0 0.0" pbc="T T T"
Cs       7.56962191       3.61030514       5.55842151      -0.30623743       0.03425321       0.31092839       1.79407484      -3.21162065      -3.28701743
Cs      13.96452297      12.43301322       3.32108226      -0.05573407      -0.08174119      -0.06333854       0.06116234       2.41325028       0.27608400
Cs       4.57476796       8.99435916       5.88988350       0.12799508      -0.12947723      -0.02822551       1.37856305      -4.18981021      -1.42015343
Cs      16.25937053       6.87764210       3.62163474       0.23142938       0.11155464       0.07479725       0.62389452      -0.78239832       0.12570542
Cs       7.29281391       3.55593609      10.91040647      -0.09645164       0.16008022      -0.24709854       1.40366588      -2.15599848      -1.30341300
Cs      14.20632228      12.23265088       8.02992850      -0.32111340       0.00953136       0.37409741       1.47585360       1.25365220      -0.53609988
Cs       5.16320375       8.82700223      10.66661168      -0.54837138      -0.04586519       0.04929886      -0.08053302       0.92921843       0.11912979
Cs      16.30547917       6.86813565       8.44605552       0.13118233       0.20904096      -0.14805784      -0.49090784      -0.13243379      -1.25916918
Pb       2.74996555       4.59273785       3.49231627      -0.13338445       0.03912100       0.19015709      -3.21228708       0.35391011       1.68231177
Pb      18.74120997      11.43321005       5.95288014      -0.43529671       0.08355119       0.28401426      -3.50807253       0.77060481      -2.24349539
Pb       9.91169477       9.67368614       3.47441509      -0.82389102      -0.04764800       0.01083967      -0.48919013       0.20417006       0.59240804
Pb      11.90107049       6.28722758       5.80424471      -0.42664564      -0.26826043       0.45671831       0.68065839      -4.21385960      -1.74344581
Pb       2.58599927       4.57358665       8.57740719      -0.33136786      -0.17527298      -0.46006865      -0.14771686       4.71569476      -0.50317822
Pb      18.42511162      10.91900861      10.80092726      -0.28253642       0.44095298       0.04096365       0.99368523      -2.07179320       1.20254744
Pb       9.57579220       9.55487954       8.33328684      -0.15973040      -0.40228428      -0.06599910      -1.56834622       1.11301411      -0.81131842
Pb      11.67733571       5.88283105      10.59374004      -0.63004657       0.35765713       0.00713171      -0.87168323       1.07407774      -2.00097828
I        1.50733722       6.40688958       6.04290621       0.25030685      -0.25973611      -0.24489630      -1.33098743      -0.78372526       1.13631329
I        1.47904684       9.80156666       3.75801659       0.12300596      -0.06431353      -0.18565082      -0.63596251      -1.48328512      -1.41533055
I       11.11239308      11.11331802       5.78648327       0.01262656       0.45726762       0.36439378       4.46100367       1.09982552      -1.22215541
I       10.78002097       4.46115885       3.57366677      -0.05807239      -0.15298836      -0.37871769      -0.53717416      -1.04059140       0.51337048
I       17.51677698       2.76846242       3.42265915      -0.36427601      -0.22823601       0.04134756       2.90832268      -0.33792231       1.19430015
I        3.74476737      12.74498831       5.98793916       0.02499431       0.39979942       0.06792855       2.62287721       0.30312622       2.69805421
I       12.61064193       8.09024657       3.17509623       0.36828258       0.12700158       0.11034423      -2.01343284      -3.29837874      -0.02033619
I        8.59346553       7.53338490       5.72444350       0.35621194       0.20893425       0.14679207       1.38359795       1.94790997      -2.73658764
I        5.62380974       5.84570764       3.41020184      -0.25032886      -0.05975190      -0.04809220      -1.83429596       2.89703920       0.76510868
I       15.80346871      10.16350620       5.85360435       0.10070777      -0.36940473      -0.05423994       2.96913161      -3.30366015      -0.57104655
I        6.94377711      11.11902732       3.33473238       0.23993792      -0.14711740       0.27298166      -1.79542760       2.11074396      -2.62321959
I       14.53074499       4.55370101       6.09807180      -0.24946295       0.04293884      -0.20937372      -2.33037225       0.81516948       1.09123893
I        1.41053834       6.31962583      10.82343817       0.17984094       0.04413004       0.20450046       0.99900460      -2.12911559       1.47418197
I        1.33589438       9.54563138       8.22647565       0.22588628       0.43141775       0.44836363       0.64144368      -3.61821725      -0.65455621
I       10.84503884      11.15563043      10.74341430      -0.02232610       0.52545303      -0.27094427       0.87447408      -1.98043393       3.44375167
I       10.21346559       4.23879839       8.09580597       0.39619839       0.36804665       0.03255562      -0.26905129      -0.48902012       1.68072338
I       17.03623395       2.59951562       8.00643131       0.32471278       0.32721633       0.25098532      -1.15393383       2.87653293       1.44246886
I        3.39340221      12.82247784      10.54926278       0.23460912       0.07896396       0.29060002       1.86647468      -1.26373782      -1.29670695
I       12.64204403       7.97926971       8.54016105       0.03287289       0.28227551      -0.18884893      -0.79379883       0.08824120       1.98298125
I        8.62854874       7.53836893      10.64118152       0.16788808       0.16702247       0.17029340       0.04727919      -1.68633611      -0.42883540
I        5.21952847       5.91050445       8.22514448       0.54820476       0.00754279       0.00846110       0.61612056      -0.69890068      -0.13372858
I       15.49080139       9.76494615      10.90576461       0.37213721       0.01042095      -0.09392112       2.68567885      -1.66131596      -1.49567643
I        6.75957315      10.96414112       8.38376562       0.29388125       0.23514270      -0.26653523       0.10583605       2.12810612      -2.29261888
I       14.24833566       4.49590306      10.45680883       0.37755501      -0.29676645       0.27415917       0.67442035       3.25550570      -2.79940348
Cs       7.07123940       3.44217812      15.91053556       0.15514169       0.00913160      -0.32825876       3.47323935      -2.06787941      -0.67809619
Cs      13.46153543      12.40116572      12.82675741       0.02820531      -0.08512649       0.22652579      -0.36454099      -0.17263036       2.51431423
Cs       4.88674650       8.62331614      15.66974201      -0.14128863       0.19557173       0.03396261       0.42902182      -1.78465867      -1.47342220
Cs      16.49822284       6.49993108      13.26901158      -0.16508276       0.28472412      -0.12594634      -1.94161041       2.37090286      -0.62313906
Cs       8.00450252       3.19042805       0.97460361      -0.33816535       0.20335606       0.45805958       1.83093899      -0.86653561      -1.01486217
Cs      13.76519029      12.22523107      17.76785877      -0.08380791       0.03520793       0.28306987       0.88081337      -0.23754312      -4.43020950
Cs       4.49071751       8.91369559       1.44539771       0.09070731       0.02249207      -0.34933186      -4.65111479       1.05553358       0.64036737
Cs      16.86358679       7.48796336      17.91628809      -0.35877360      -0.44890322       0.02250361      -0.57207800       0.44978332      -3.41987693
Pb       2.64833293       4.41121924      13.31299024      -0.30085103       0.26814624      -0.21278259      -5.13301939       3.40400948      -3.28619559
Pb      18.18247102      11.24489338      15.67947128       0.38567507       0.30832802      -0.14746709      -0.05844706       2.97303016      -1.45418228
Pb       9.86045264       9.66258593      13.30392072      -0.70399469      -0.16065996      -0.51201791      -2.80077284       1.37731557       4.37740785
Pb      11.27093920       6.23093316      15.36649434       1.08205438      -0.00991468      -0.16379514      -1.52540097      -0.90779017       0.51545291
Pb       2.83201541       4.05658895      18.10023912      -0.58826125       0.33485743       0.16726304       1.13600650       2.72234281       0.90277466
Pb      18.68571593      11.12239983       1.54944929      -0.50386791       0.20007553      -0.40529871       1.31222769       0.14159817      -2.10650477
Pb       9.28471995       9.42695200      18.19183536       0.08620740       0.44159350      -0.17281939       0.40449231       2.98810948      -1.28333763
Pb      11.76337984       6.18385004       0.81515039      -0.14138261      -0.05771408       0.13041782      -0.62252234       0.07034789       0.39657680
I        1.80915484       6.39659351      15.85762273       0.04273152      -0.26260780      -0.03675779       2.87788887       2.11187683       2.33258066
I        1.72334475       9.76876162      13.06934971       0.02611151       0.12763827       0.14735561       1.28070474      -0.77433354       2.69435337
I       10.42543893      11.45095955      15.66180801       0.17470244       0.07560873       0.08731996       2.18799409       1.27430794      -0.16061276
I       10.15306409       4.36738928      13.19222905       0.17221714      -0.22048386       0.16547952       2.76445923      -2.68753515      -0.19832840
I       17.48238891       2.73584199      12.90288482       0.12014043       0.00503991       0.45622887      -1.62693057      -1.02260473      -2.82885667
I        3.67444270      12.65370826      15.52695934       0.10462420       0.54645873      -0.00846875      -2.15676703      -0.49805932       0.92273212
I       12.69767750       8.18256118      12.96051695      -0.14970812      -0.33323533       0.09414285      -1.66202909       0.85984732      -3.89569763
I        8.45932353       7.57510079      15.40035220      -0.04574946      -0.09066974       0.36071913      -0.18461485      -1.47038953      -0.34447827
I        5.32361538       5.95234277      13.34613025       0.00545510      -0.28682319      -0.11220830      -1.13061626       1.89707196       1.97351334
I       15.46025924      10.17969565      15.55558323      -0.29325945      -0.50607936      -0.23672865       1.01531998       1.02586478       1.99872087
I        6.89583898      11.03771737      12.93737428       0.15815569      -0.04377316       0.22893118      -2.53515445      -0.47085057      -0.34545541
I       14.53321146       5.06139716      15.58743370      -0.82470856      -0.03444972       0.18901536      -1.36592549       0.09449771       2.87583764
I        1.19969079       6.19456771       0.99045839       0.42828314      -0.10976285      -0.24982765       1.29329377       0.66138538       1.34615450
I        1.53790400      10.20758378      18.13755167       0.48100925      -0.82368978      -0.07364931      -2.12818265       2.20606386       2.50073618
I       10.72028812      11.48319028       0.94355707      -0.16591041      -0.14664855      -0.14948342       0.30176283      -1.57617538      -0.92399996
I       10.38984871       4.37793560      17.73744736       0.04278358      -0.10812649       0.23925425      -2.49751872      -2.98294246       2.42682937
I       17.55715252       2.75585389      17.88833322       0.09315035      -0.27324003       0.30274000      -1.71732992       0.81528209       1.56841204
I        3.51850123      12.82351805       1.37966395       0.29718676      -0.09455980      -0.18722086       1.13872086      -0.46351806      -0.87701741
I       12.28119273       8.38576566      17.79212504       0.36924586      -0.27274112       0.05681282       0.13274431      -1.86040866       4.55123493
I        8.51712058       7.61587148       1.41419223       0.07569907      -0.31667695      -0.36238409      -2.71478930      -4.05442241       2.44437397
I        5.44128550       5.59205346      18.58680556       0.20880216       0.26652200      -0.24725812      -1.69018286       2.98997754      -0.78862796
I       15.76687848       9.73562443       1.12277678       0.20737110       0.31915654       0.08471876       1.92011173       0.30225527       1.28749728
I        6.77484689      11.31316697      17.66810164      -0.22419799      -0.21419805       0.49155097       2.05529048       1.98110837       0.02081724
I       14.56560859       4.80600650       1.04150650      -0.20650729       0.04078390      -0.11241377      -0.11837352      -0.52051246      -0.75722621
Cs       7.93341837      14.05999545       5.79320924      -0.20911599      -0.17324270       0.05673721      -1.01929346       2.41345070      -1.15327467
Cs      13.35479713       1.61981535       3.41670635       0.19209205       0.03729276       0.22047575       0.60344951       1.26269447       1.75054567
Cs       4.26878750      19.13866219       6.02341801       0.46011210       0.29598565      -0.06970955      -2.33443910       2.31923430      -2.31504169
Cs      16.65198405      17.39898752       3.51843442      -0.16498544       0.03335132      -0.12832451       0.89489206      -1.17237062      -1.22028253
Cs       7.19373770      14.09076662      10.65418818       0.36191567      -0.20821422       0.01856519      -4.77525806       1.69141572       1.28594064
Cs      13.27432579       1.53176603       8.25729024      -0.06294619      -0.04005889       0.02425570       3.48980125      -2.39685667       2.24632747
Cs       4.74776677      19.33198140      10.65977855       0.07603656       0.05039292      -0.07754614       3.64062348      -3.78601128      -1.12955989
Cs      16.34632285      17.77137974       8.37252200       0.08439063      -0.29940539      -0.03262799       3.03346004      -2.61017254       1.71817342
Pb       2.79207283      14.75182068       3.64658324      -0.08287967       0.45996137      -0.01069290      -2.86451918      -3.10106605      -2.12315914
Pb      18.28813006       0.84398641       5.85469388      -0.25438072      -0.62539208       0.05938720       2.91257395       0.85651265       2.11251236
Pb       9.42153104      19.76334392       3.40264868       0.31450795       0.18102506       0.34800547       2.68987183      -3.36644904       6.00850783
Pb      11.64716199      16.43164486       5.78098747       0.01633952       0.21435904       0.03163229      -1.23378300      -4.76934713      -0.15906509
Pb       2.80759825      15.05684128       8.41819024      -0.30987933      -0.22454033      -0.29459687       0.12714275       2.39753626      -1.34264199
Pb      18.36714643       0.67043571      10.50488272      -0.23191124       0.31865444       0.30507715      -5.40157124       3.43990111       1.55036153
Pb       9.45859527      20.30608353       8.30704067       0.32931694      -0.31675987      -0.05621790      -0.75151332      -0.50778970      -0.85260510
Pb      11.71057566      16.54046828      10.52700641      -0.48212424       0.46851329      -0.14464474       1.37002313      -1.67803381       1.01481118
I        1.85270533      16.99928545       5.88617316      -0.23700706      -0.26116192       0.21563778       1.43368479       0.14743808      -0.55432572
I        1.51680754      20.15270815       3.50270776       0.20008597       0.06448587      -0.12970193      -1.83194079       0.38415060      -0.49132544
I       10.12010291       1.12887361       5.93235341       0.15185801      -0.46631058      -0.68287512       0.25308044       0.60022420      -1.13829390
I       10.84026170      14.49122236       3.24367895      -0.02985398       0.43773468      -0.09416553       0.55286914       1.15987851       0.30915606
I       17.51757129      13.44025920       3.73393006      -0.11633859      -0.14357110      -0.37051695       0.87283374      -3.69856823      -0.66299497
I        3.10962813       2.48740736       5.95023216       0.54514594      -0.04700690      -0.07222247      -0.49484759      -0.51830667      -0.58974241
I       12.52892697      18.40785852       3.50282346       0.12847553       0.31726217      -0.01196424      -0.85284214      -2.59258515      -3.18515367
I        8.63423260      18.13166700       5.87667746      -0.10420953      -0.22837988       0.22465315      -2.63073355       1.99286661      -1.46183953
I        5.53831991      16.39517711       3.57568849      -0.27897912      -0.22446501       0.19210240       0.34069012      -4.31952546      -0.11854398
I       15.68483070      20.26758597       5.90505961       0.32917800       0.36440141      -0.21957545      -1.67258882       0.36094548       2.26831274
I        6.63932781       0.34784016       3.69417626      -0.27400147       0.06875815      -0.17898394      -0.58703101      -0.25132273      -2.46928948
I       14.49817686      15.22001742       6.01751592       0.12156504       0.03637880      -0.09330195       0.54476026       0.66646131      -1.69492955
I        1.50450444      16.72131064      10.69859152       0.18725448       0.02503002       0.09296007      -0.21878696       3.36689192      -0.33876635
I        1.81571155      20.53251855       8.43847806      -0.05343398      -0.41223644      -0.15588544      -1.03888877       1.85601669       1.88085105
I       10.12678459       1.11794613      10.95104025       0.31909752      -0.01870686      -0.22918141      -4.47480142       2.95905983       3.46024566
I       10.57377094      14.59112005       8.16888760       0.00564962      -0.07829365       0.29884213      -2.86368624       1.22286342      -1.01740137
I       17.66613418      13.20941794       8.73660986      -0.03915887       0.07199731      -0.49067962      -1.89755219      -4.98558675      -1.60366520
I        3.52711382       2.43647321      10.89070056       0.01353332       0.02756258       0.01957565      -1.44757704      -0.85778135       1.21431308
I       12.62328081      18.76208483       8.03808225      -0.29500144      -0.31616589       0.24148100      -4.05054928       2.17451959      -0.80308615
I        8.47435867      18.27601280      10.64743383       0.16925389      -0.31314261       0.03591989      -2.10903517       1.33766987      -0.52838139
I        5.58045179      16.28201868       8.39447450      -0.03044672       0.06145887      -0.17024381      -1.98892922       4.47351717       4.29785441
I       15.80395365      20.43446480      10.58852913      -0.36231320      -0.06829792       0.27770328      -2.63637104      -0.44555430       0.43104565
I        6.67291354       0.66730692       8.19458001      -0.58558756       0.15952072       0.00736975      -0.84314583       1.98661885       0.34030098
I       14.46847042      15.45680878      10.81265970       0.12274487      -0.34260867      -0.18012100       2.84192138      -4.14397192       0.40192275
Cs       7.28540327      14.24806074      15.40215807       0.15521568      -0.19310752       0.03878154       1.53605000      -1.60823856       4.63014103
Cs      13.57559701       1.75114585      13.44521318      -0.00289088       0.11828205      -0.28867620       6.16722117       1.81326684      -2.66271608
Cs       4.97415307      19.43193886      15.54123941      -0.04086884      -0.21194379       0.19739747      -0.30787605      -0.43609099       2.19824165
Cs      16.41402285      17.37456602      13.22138835       0.04252832       0.19170899       0.05166542      -0.01283818      -4.97832107       0.98045104
Cs       7.16954195      14.15998681       1.37521987       0.34218996      -0.31032675      -0.27667159       1.95301235      -2.71746350      -0.32082862
Cs      13.30087102       2.01282700      18.10280345       0.36682239       0.01744481      -0.18854884      -2.64947160      -2.30737484      -1.62539742
Cs       4.88831268      19.09287514       1.16780209      -0.18298264       0.18083358      -0.00387961      -1.61220751      -4.12576037      -2.40205951
Cs      16.65344553      17.66776247      17.78800109      -0.11754052      -0.25641432       0.06250935       0.53783284       1.95551724      -1.11726507
Pb       2.67070144      14.74349146      13.12643960      -0.30842805       0.08610404       0.22793032      -2.19137942      -1.15113050       0.90352052
Pb      18.48067301       0.70470869      15.52624687       0.24764512       0.64536636      -0.14440507      -2.43336878       1.07202158      -7.73184451
Pb       9.43102371      20.09423288      13.07532427       0.12233059      -0.32075966      -0.02124336       3.35477206      -0.45858755      -3.14609986
Pb      11.62531811      16.65806139      15.48610635      -0.06284701      -0.44466002      -0.25797274       0.18216180      -1.06977618      -4.97721461
Pb       2.77953452      14.85142024      18.14705363       0.28774737       0.09751216      -0.09374489      -0.09570222       2.86115163       1.48631037
Pb      18.37138437       0.45134870       1.11362349      -0.26822899       0.28769906      -0.37506625       1.48098607      -1.09962949       1.77576927
Pb       9.57617652      20.02173787      17.90349608      -0.24983951      -0.11266714       0.04251411      -4.91054108       3.83907432       1.42007528
Pb      11.67928982      16.73799186       0.71673590       0.17569180      -0.45883334       0.56098850      -3.14018258      -3.78419852       3.38590655
I        1.95984454      16.89498214      15.86608261       0.01783709      -0.36434329      -0.48038887       0.14375469      -0.43917117      -0.19483383
I        1.98304633      19.99579697      12.85644921      -0.27404787       0.27367546       0.00919524       0.63803851      -0.47032992       1.22610099
I       10.49177042       0.74759750      15.63365503      -0.12325850       0.24752239      -0.05224604       0.42629264      -1.23654752       1.33917208
I       10.23615934      14.92129577      12.97976365       0.24371040      -0.01513124      -0.03951012       1.40593159       1.71139971      -0.61567982
I       17.47981135      13.11059017      13.07993432       0.16804032       0.14238381       0.09076388       0.10028926       1.06985012       0.72807210
I        3.47483954       2.17865151      15.39884783       0.41165096       0.20913108       0.14885005      -2.38236248       2.07480641      -1.49522702
I       12.42329578      18.69083809      12.88699802       0.21873123      -0.18839194       0.36287527       2.71495283      -0.41427201       0.73524257
I        8.41330274      17.88002844      15.48633222       0.35259717       0.34472911       0.27276839      -0.61597722      -2.61337514       1.93670564
I        5.24272113      16.29338448      12.94125833       0.18616690       0.14103048       0.08467683       3.28698208       2.27186226      -0.12098883
I       15.92940651      20.75148812      15.65743665      -0.53011140      -0.47603138      -0.04802140       1.33720344       3.85141976       0.11931020
I        6.53882472       0.46983712      13.10872403      -0.23276437       0.29398177       0.11279588      -0.95666255       0.22849546      -0.72311528
I       14.41431308      15.00702868      15.41370313      -0.29539714       0.41093197       0.13407111       1.92215452      -1.93483208      -1.77546112
I        1.72158520      16.89885514       1.12800322       0.15770954      -0.37810620       0.09817461      -0.80454167      -2.19468919       1.81531512
I        2.02830535      20.52853199      17.93488883       0.06767004      -0.37354942       0.29805533       1.47322927       1.57020942      -0.18519067
I       10.73541503       0.68673883       1.22206392      -0.29269413      -0.09186352      -0.46848410       1.43423374       0.34803260       2.06372587
I       10.42553568      14.77477316      18.14662805       0.21410701       0.11405243      -0.66943646      -2.47645194      -2.79952976      -1.33688004
I       17.64258101      13.20757246      18.15049494      -0.01930631      -0.14986379       0.22254280      -0.00533620       1.49116664      -0.20189491
I        3.65098374       2.21377078       1.26194315       0.01293935       0.22478000       0.15968458      -1.94885242      -0.16278281       1.60962731
I       12.37786998      18.80558346      17.56782697       0.61515378      -0.01467690       0.21020927      -0.70370773       2.07523124      -2.74448859
I        8.54035503      17.64253102       0.86656483       0.12322121       0.58517961       0.32429094      -0.20833843       1.38603323      -0.08558131
I        5.70041162      16.15913813      18.23952793      -0.32141409       0.14867758      -0.27325382       1.79634514       0.47366868       0.07618381
I       15.53606782      20.39034184       0.96519112       0.27355836       0.00684736       0.07698580      -1.97208937      -1.35051884       0.67942503
I        6.69111846       0.68399881      18.33802264      -0.14091948      -0.20316375      -0.24352834      -1.34161902       0.98676298       0.18019091
I       14.55651496      15.31915407       0.77297327      -0.16794924       0.10549127       0.02177282      -1.37896141      -1.19910199       3.65356724
Cs      25.49777595       3.14134298       5.62204306      -0.09197679       0.11885294       0.26461482       0.69061055      -3.01890618      -0.40412072
Cs      31.83958750      11.97104646       3.31638702      -0.18875561      -0.04250932      -0.03874603       0.24168867      -0.49515484      -1.45230349
Cs      23.04234564       8.38508924       6.16141992      -0.13215952      -0.01279712      -0.07505488       1.04655503      -0.06223404       1.53025265
Cs      34.34233132       6.83012148       3.32699582       0.05250251      -0.01229077      -0.08261974       2.53790654       1.37660374      -1.56766742
Cs      25.47937673       3.15464718      10.69661884      -0.10370307       0.01784049      -0.20394118       2.29351359      -3.46316378      -1.94043852
Cs      31.80402251      12.42729953       8.57692393      -0.07900176      -0.37889653      -0.23572002      -4.13627058       3.02208340      -0.26821548
Cs      22.17537883       8.66456498      10.73703476       0.22902349      -0.11936377      -0.10839188      -0.28831928      -0.84984259       2.24868067
Cs      34.29688701       7.25327357       7.91958156      -0.09486692      -0.35676040       0.28310603      -0.74518216       2.26415305       1.99633321
Pb      20.34778842       3.83594675       3.58940729       0.59900924       0.42914115      -0.02762672      -0.78631949      -1.85536808      -2.76450533
Pb       0.61775295      11.81710742       6.01868811      -0.47948169      -0.51189890       0.39526215       4.05680147       5.01328250      -0.63788637
Pb      27.84778726       9.51993272       3.66354278       0.09071838      -0.13721667      -0.68433405       2.36664671      -0.09258458      -6.40642464
Pb      29.78254799       6.22815648       5.84781303       0.01113549      -0.09152243      -0.55275826      -1.14492966       0.03701538       0.30352860
Pb      20.18361882       3.87729753       8.31891540       0.60880983       0.51031952       0.15738174      -0.53917944      -6.69381612      -5.83310825
Pb       0.19000401      11.80871517      10.67085472       0.24096540      -0.92550462       0.04096195      -1.09916713      -1.41601174       2.32827915
Pb      27.36681447       9.59295620       8.25080840       0.62485206      -0.40731404       0.08401162       0.30796593       2.77726920      -0.41853440
Pb      29.57617113       5.92516314      10.20938936      -0.16095403       0.36786698       0.23722016      -1.39051500       0.50795372       2.39806579
I       19.49671927       6.03583925       6.00000686      -0.00342599      -0.28423776      -0.11882247      -3.65794027      -0.72475786      -0.59838510
I       20.02142469       9.31769644       3.80467425      -0.32596002       0.11662784      -0.15163473       0.10163130      -0.72676926       2.33587565
I       29.14477273      11.15268805       5.79779528      -0.23863656       0.30255850       0.25517078      -1.18141325       0.46277499      -0.31577759
I       28.70021527       4.20069809       3.40899868      -0.23189969      -0.01014057      -0.00470775       1.45184852       0.10495649      -3.31608318
I       35.34786539       2.94864731       3.23252203       0.05702948      -0.25733258       0.18141438       0.28969659      -0.91183752      -2.17117249
I       21.53754728      12.75093278       5.99072423       0.27225726      -0.02494936       0.01416013      -0.33397884       2.27318472      -4.13703043
I       30.77120080       7.79466031       2.84216543      -0.22429807       0.24240416       0.37327611      -0.30174781       4.28624006      -0.39716032
I       26.59833933       7.64764504       5.75132978      -0.14565788      -0.46270241       0.20704514      -1.91437029      -2.37414514       1.97160818
I       23.21328523       5.37040129       3.66717844      -0.07673490      -0.07213637      -0.18435646      -0.00643554       0.01955552       2.88433048
I       33.61607567       9.80868136       5.81111878       0.11226007       0.37526997      -0.05250223      -1.66575695       1.75213155      -0.03417800
I       24.98686915      10.71306945       3.65762725      -0.43655406      -0.16305717      -0.10545276       1.56160076      -1.97737555       0.50170846
I       32.42511857       4.77691066       5.47891007      -0.07621348      -0.28515531       0.30814159       0.51603526       0.05730739       2.00506597
I       19.28581628       5.97178519      10.80365373      -0.00928137      -0.10406323      -0.38004678      -4.06322568      -1.04689358       2.35505430
I       19.66130794       9.48723630       8.14189034       0.04031276      -0.37639683       0.19080543      -2.66597352       0.38400067      -0.20060441