320
Lattice="31.392636507215773 -0.04481615214523286 0.09492011689125937 0.1392903615087138 28.887165468702893 0.25788863917263216 -0.2799812260619887 -0.14238296324623026 16.953981605175922" Properties=species:S:1:pos:R:3:forces:R:3:momenta:R:3 energy=-971.8775631480108 stress="0.0 0.0 0.0 0.0 0.0 0.0 0.0 0.0 0.0" pbc="T T T"
Cs       1.59972961       3.48956651       3.34739873      -0.06616464       0.07533905       0.15038822       3.10976758      -3.11643825      -4.49923660
Cs       5.75940469       6.53415653       7.83349115      -0.17256325      -0.06596326      -0.00513508      -0.78932139       2.66819017       0.00724179
Cs       1.33991112      11.12400104      16.32011214      -0.00501327      -0.08737306       0.09788126      -0.58032321      -2.76597911      -1.03883622
Cs       5.22395133      13.32117080       3.66224055       0.19775440       0.20743062      -0.01210117       0.19271931      -0.90198758      -0.75694592
Cs       9.35951609       3.55373027       3.55966673      -0.02245003       0.00818052      -0.03223057       1.62436674      -1.70633004       0.30759623
Cs      13.50131748       6.11052578       7.51285465      -0.22913931       0.05214780       0.15858034       2.38969028       1.74266993      -1.54219337
Cs       9.84182451      10.49254211      16.02557968      -0.27138518       0.00703468       0.03737166       1.62850059       0.37953099       0.01779597
Cs      13.45392004      13.14697597       4.02155743       0.06907744       0.08139494      -0.10374117       0.09176620      -0.50456303      -0.25039885
Pb       2.79454601      15.65323384       8.08372681      -0.07374343      -0.07462687       0.10888433      -5.22191224      -0.50172017       3.70934799
Pb       7.05474358      15.76403498       8.17099207       0.12119174      -0.18599968       0.25066678      -1.85999374       0.59400289      -0.98292790
Pb       4.57344862       8.65921098       3.33339503      -0.67521620      -0.12826511      -0.04455318       1.52857214      -0.58515538       1.64361552
Pb       0.57038705       8.58478877       3.58451488      -0.08184741      -0.02969379       0.02026212       2.38034786      -3.64321162      -2.47642096
Pb      11.03850194      15.54910048       8.08863489      -0.76357418      -0.17864968      -0.04122987      -0.73388621       6.61737406       0.39059132
Pb      14.86881455      15.36539395       7.80493591      -0.29388554       0.21356659       0.17060308      -0.34393566      -2.44120460       0.88308864
Pb      11.99971256       8.36519552       3.65259884      -0.39416123      -0.31249789      -0.07183590      -2.90271814       0.52023924      -1.80477226
Pb       8.15276735       8.51729706       3.46036718       0.29513010       0.41029846      -0.02091887       1.94261245       1.47577189      -1.66823387
I        4.46019954       2.58511929       1.35261809       0.20796609      -0.16583679      -0.25421307      -1.28796596      -1.25088534       0.20484872
I        2.28242138       7.45563314       1.15299184       0.07343523      -0.00154780      -0.02521801      -0.32780571      -2.45862233      -2.94780352
I        5.11482972       2.46041346       5.30907094      -0.26511511       0.14571926       0.04840542       1.18501609      -1.83120008      -2.49102552
I        2.87243005       7.13808239       5.67968832      -0.32161298       0.10108033      -0.40997564      -1.91805939       1.57966465       0.06019428
I        6.53198921       6.04995090       3.22492407      -0.30968171      -0.34684320      -0.05700739       2.45562198      -0.36078009       0.48828063
I        0.99799224       3.60298539       7.45963266      -0.01328532       0.04969193       0.03789476       1.86493445      -0.55842990       1.95889630
I        6.09356019       9.94813429       5.62425423       0.24336805       0.06623287       0.18969333      -1.48917873      -2.47377714       1.18213446
I        0.85860613      14.01605857       5.71618725       0.22516326       0.48246301       0.50138723       0.54071369       3.27980469      -0.34916469
I        6.44178863      10.07582181       1.22682186       0.03978874       0.05328221      -0.05788694      -0.03533209       2.36032087       0.86664064
I        1.15027726      14.86409506       1.92946684       0.10611715       0.00870476      -0.19927901       0.34224709      -1.95473446       0.13312078
I        5.00015595      13.28923283       7.90876099      -0.08392148       0.09197729       0.04609650      -2.45666049       3.28369293      -3.16731317
I        2.64143849      11.19135262       3.68468900      -0.17024960      -0.27168671      -0.12670885      -1.28249626       0.48813906       1.78452334
I       12.51028680       2.44958423       1.31541175       0.01105241       0.12286316       0.23863320      -2.18119586      -1.29740603      -1.30876110
I        9.91395656       7.50927454       1.03362142       0.47552469       0.09596507       0.38471862       1.53830920      -3.91251692      -1.84076440
I       12.68008581       2.16268105       5.53756380      -0.00122485       0.45679772      -0.34833660       0.07932501      -2.48261221       2.59814914
I        9.73342240       6.77817592       5.67927618       0.45001067       0.20856615      -0.30025382       0.01397903      -1.83525009       0.36237497
I       13.83230526       5.44388118       3.01682895       0.34926487       0.68712392       0.20466184       0.08701356       3.08277763       1.65867422
I        8.50328458       4.07248236       8.19074262       0.49102434      -0.01595894       0.02046081       2.73498608      -0.26412484      -1.71637696
I       14.23807170       8.99652944       6.07352160       0.01476759       0.09451927      -0.12051018      -0.93844511       0.59899560       1.84046190
I        8.66993635      14.33607989       5.72892382       0.08994587       0.33657651       0.56200524       0.26516246      -0.14160438      -1.10470882
I       14.08669120       9.66455321       1.69203248       0.19644768       0.00767308       0.03256722       0.35823686      -0.52658393       0.16615000
I        8.54169403      13.97609614       1.85455921      -0.06052798       0.27312404      -0.52516594       2.55059265      -0.14393767      -2.42524086
I       12.67142876      12.81628962       8.03360651       0.33397562       0.04739945      -0.14925691       0.46296575      -0.30731942      -1.45744066
I       10.39776758      11.11213884       3.72595766       0.16350845      -0.39526258       0.12808808      -1.37161872       4.49196870      -3.92713194
Cs       0.53489877       3.30764356      12.26393725       0.20570549       0.04993201      -0.29494284       3.66851428      -1.30891368      -0.98314427
Cs       5.12217636       6.16728466      15.99086833       0.13132200      -0.06743187       0.05307114       0.77620755      -1.06125776       1.33820160
Cs       2.08368905      10.78659004       7.92971764      -0.10855352       0.12886985      -0.08726425       1.02355403      -1.21823626      -1.91944382
Cs       5.69185407      12.92431821      11.94849793       0.07107185       0.21785014      -0.00751403       0.03148055       2.15291178       0.64263961
Cs       9.61732604       3.17783765      11.59197112      -0.42888354       0.18436714       0.21911751       1.62628552      -0.69821302      -3.48023499
Cs      13.15526499       6.04050783      16.19732489      -0.12651907      -0.08117334      -0.01357412       0.52195214      -0.45579529      -5.22561180
Cs       9.39861833      11.07161925       7.97361155      -0.14451053      -0.00824103      -0.10702778      -6.20890206       0.88321968       1.49881087
Cs      13.48799344      13.90377181      12.47709780      -0.28337722      -0.34744275      -0.05360216       0.65274529       1.46294804      -2.91292115
Pb       2.85876740      15.64684874      16.29025072      -0.23647524       0.02878449       0.31497831      -6.07821845       0.00520847      -5.00987211
Pb       6.66791962      15.69676523      16.40093694       0.41552521      -0.38604382       0.41356453      -0.95258267       1.71681802      -1.11871263
Pb       4.08290959       8.51340054      12.03828189      -0.19417768      -0.25501150      -0.22098124      -2.15155131       0.55584199       4.82321023
Pb      -0.06632923       8.82478105      12.11529998       0.71307778       0.14419706      -0.39494359      -2.27575715      -1.66757299      -0.99279164
Pb      10.56186846      15.10068691      16.64999249      -0.17695060       0.22109158       0.41939947       4.14660753       2.78970047       1.61747314
Pb      14.79260675      15.16371987      16.80530849      -0.22894399       0.27919489      -0.05128180       2.06055100      -0.09089050      -2.09374813
Pb      11.95014064       8.27886645      12.38564104      -0.27194606       0.40963849      -0.44082343       0.30308582       3.17756924      -1.89397674
Pb       7.96747267       8.51611061      11.69486619      -0.29665765       0.02445152       0.37547290      -2.29739060       1.31416395       0.12500551
I        4.50902924       2.40300167      10.17648278      -0.25216256      -0.19652469      -0.47173916       1.56075108       3.95461689       0.71070614
I        1.72953791       8.06016300       9.45022097      -0.01381383      -0.30454870       0.27434076       1.70699579      -3.14104668       2.61722569
I        4.38747882       2.43908617      13.98581857       0.20039029       0.05317767      -0.00478527       4.04202034       1.30236632      -0.67685452
I        2.05164027       7.08473419      14.03960955      -0.30958383      -0.13330109      -0.06261224       1.43558160      -0.61661138       0.27106696
I        6.07113068       5.84726767      11.38388046       0.22819235       0.11765331       0.11952737      -0.90194639       0.15147574      -4.21316433
I        0.66240160       3.52789200      16.32543654       0.34461465       0.49696580      -0.07841762      -0.93594510       1.97177614       2.53456170
I        5.90467313       9.54362202      14.23881088       0.24072166       0.02185667      -0.00481305       0.13415845       1.40461888      -3.77541791
I        0.24740485      14.11616292      14.62839387       0.41212857      -0.03326779      -0.36071365       1.07308317      -0.88928971      -2.00175387
I        5.87254876      10.02846891       9.77304244       0.01432130       0.04672266      -0.10527374      -1.60596227       2.93700076       2.08674492
I        0.81175513      14.59632731      10.28250709      -0.08325110      -0.13273454       0.02585964       2.41085199       3.90493330       2.61344293
I        4.64529799      13.05928181      15.86977741      -0.15942657       0.27445752       0.17091077      -3.70455222       0.59837195      -0.53104796
I        2.57212615      11.18637622      12.76306744      -0.59877014      -0.17004892      -0.12946509      -0.15984000      -1.51056876       0.55387685
I       12.16739635       2.53450055      10.22526239       0.28513790       0.07855538      -0.18736720       0.99148599       2.58937825       3.31025034
I        9.85292669       8.09370903       9.48753348       0.42826507      -0.47415657      -0.15852538      -2.09149337       2.42503632       1.80909574
I       12.58784876       2.26371317      13.99798563       0.02439417      -0.03265842       0.15018297       1.31717213      -0.99496709       0.58513480
I        9.49543026       6.78398477      13.91438086       0.23972795      -0.18189882       0.18534129      -2.15119804      -5.32713353       3.97202010
I       13.87548074       5.69774244      11.61525521      -0.00774411      -0.01850936       0.16942838      -2.10680580       1.27036264      -0.03352467
I        8.38110511       3.80738858      16.51088071      -0.17030555      -0.41517188      -0.15121526       0.12744506      -0.52657926      -0.25618079
I       13.61690853       9.51050505      14.72278394       0.59069346      -0.36566365      -0.46076566       1.01819888      -3.57178281       0.61016165
I        8.55665243      14.37895923      14.29255773       0.03469656      -0.20373256      -0.29837629      -1.06039621      -1.00875478      -0.16972175
I       13.93814237       9.85043813      10.26843546      -0.00340507       0.05595006      -0.15517800      -2.09588184       1.76010696      -1.25219176
I        9.18288815      14.07916562      10.33703012      -0.43859810       0.36704371      -0.37173662      -0.88754358       0.30386598       0.19165284
I       12.60449103      12.87056694      16.44678501      -0.02829663      -0.53009717       0.18150442       5.58553816       0.27162098      -2.02009762
I       10.18382016      10.95888285      12.23661968       0.06134941      -0.04129046       0.18297475       2.49586567      -2.05560263       1.18782705
Cs       2.09988083      18.62362331       3.55573638      -0.16026967      -0.23208277       0.04851383      -1.01696620       2.74819017      -1.33812227
Cs       5.21325123      20.00027433       7.78244394       0.17146231       0.03374520       0.13698516       0.59946294       0.76694924       0.83190185
Cs       1.41593949      24.45351173      16.10889050       0.19296289       0.21558134       0.04491551      -3.80735906       1.95285611      -2.85356764
Cs       5.30893831      28.12165929       3.82617089       0.03752464      -0.03759571       0.00013711       1.90194878      -1.20547883       0.90714899
Cs       9.24847481      17.95049876       3.76127184       0.12132781      -0.19327581      -0.02850007      -4.38286194       2.52238057       1.46654742
Cs      13.14139654      20.06184246       8.19410426       0.01118516       0.18843757      -0.05326653       2.68691731      -0.49471275       2.27106590
Cs       8.68009969      25.57399703      16.35876298       0.00644597      -0.08751967      -0.07323872       1.83139796      -3.62355519      -0.82626666
Cs      12.91450376      28.26673928       3.71756995       0.08680564      -0.15042528       0.01617400       2.05104202      -1.67436267       1.19444115
Pb       3.00829446       0.85643364       7.47967220       0.26094617       1.04395555       0.18917597      -1.14374332      -0.95235186      -0.08037018
Pb       6.75556955       1.57592667       7.94248516      -0.19333342      -0.26628442      -0.11806394       0.79470003       0.89674621       0.73902106
Pb       4.13517371      22.82354101       3.70246994       0.15019279      -0.14349930      -0.37584099       1.42384813      -4.53934470       2.92779787
Pb       0.08808751      22.87203864       3.56559169       0.12921446      -0.00985539       0.17647006      -1.58624409      -4.21899609       1.68959037
Pb      10.62751456       1.46175147       7.85291035      -0.70612984      -0.68602377      -0.00364120      -2.43847783       0.53838969      -1.08665446
Pb      14.31803414       1.06010614       7.91188410       0.39336810       0.03179084       0.49682050      -2.80151824       1.26224006       1.36707715
Pb      11.86772241      23.13821401       3.86808459       0.91048897      -0.34721296       0.06846200       1.83759572      -1.31818952       0.03378503
Pb       8.30758435      22.99491226       3.87437736      -0.88748182       0.24966687      -0.48722901       1.63935731      -1.46092487       1.91475357
I        5.14486519      17.35428688       1.57122149      -0.45792651      -0.25084123       0.07024875       1.23157078       0.55477847       0.70851341
I        1.92021742      21.05055868       1.56343604       0.38274986       0.22625449       0.17411150      -0.17819006      -0.91220511       0.10937973
I        4.88355454      17.17541486       6.17674777       0.21902392       0.08100117      -0.38552194       2.04865176       4.64730876       1.38970299
I        2.14061558      21.49261973       5.74561106      -0.12154294       0.01576650       0.17950731      -0.34986104      -1.68756879       2.38947139
I        6.48354896      20.36497031       3.80186397      -0.18513714       0.06608188      -0.03839130      -0.09180683      -1.10659659      -0.50648155
I        0.48325140      18.05743340       7.90842894       0.54787840       0.38304974      -0.15262658      -1.19433431       2.23690214      -2.24561879
I        5.99678357      23.72842117       6.03590176      -0.11068833       0.23981730       0.13465376      -1.14363622      -3.55408485      -3.11910009
I        0.94273652      -0.30046138       5.45332956       0.10119652      -0.24819788      -0.61758168      -2.36676034       2.88594128      -0.97301255
I        6.09309903      24.39731904       1.59427975       0.04890906      -0.28162031       0.28353725       1.61173668      -4.65908315      -0.64371076
I        0.64655342      -0.38339212       1.11136042       0.07956031       0.12433335      -0.16762473      -1.75795740      -0.88780713       1.98955964
I        5.29216714      27.50972122       7.89188438      -0.03828739      -0.24235898      -0.05769678       1.13395790      -1.57613993      -1.57462014
I        2.32271400      25.32026415       3.55815839      -0.05916046      -0.00089806      -0.03749272      -1.00425827       0.56330266      -0.89389349
I       12.72644534      16.62327785       1.84080631       0.12783303       0.05748865       0.13645286       0.00032830       1.43621617      -0.35409496
I       10.23943173      22.21701359       1.54324065      -0.18894528      -0.40396667      -0.33863690      -1.48842100       0.86616052       0.48775631
I       12.56385492      16.84495999       5.84392104       0.35285154       0.09368208      -0.27356963      -4.81955600       2.80936779       3.37336853
I        9.84068606      21.60710905       5.86919982       0.16430000      -0.25361596       0.59542125      -3.54206490      -0.81832336       0.14159178
I       13.95390726      20.20271390       3.95529516      -0.29072625       0.48543310      -0.03106623      -3.47236286      -2.85634219       1.03379044
I        9.10389941      18.22765085       8.42387944      -0.07133698      -0.03677431      -0.05980613      -1.21627869      -1.42118607       1.65343055
I       14.15982679      24.47743587       5.90164852      -0.21822546      -0.08960037       0.34150556      -3.36561651       3.68822413      -0.33429043
I        8.50143080       0.45349706       5.43058970       0.18806592      -0.03845035       0.09112099      -1.66490355       4.08416441      -0.33037753
I       13.84213918      24.11985180       1.68490711       0.03872914       0.18045676      -0.33308665      -1.83898739       4.26425314       3.11581078
I        8.85631773      -0.04794469       1.38088857      -0.30857355      -0.00346325       0.14850479      -0.01075152      -0.59887274      -0.14251443
I       12.46897059      27.50472143       8.15752626      -0.20787816       0.00836113       0.14049704       1.12059808       1.63026383       0.17221506
I       10.13678656      25.68313004       3.83505786      -0.13959438       0.08568666       0.22060993      -0.00956536      -2.65807998       2.04336438
Cs       1.19810546      17.89586519      12.20843728       0.01666670      -0.05436527      -0.01345193       0.83648085      -1.02244532       3.05518162
Cs       5.46340689      20.48201146      17.08052762       0.00963584       0.05399139      -0.29950347       4.92001900       0.60341909      -2.03059187
Cs       2.15560769      25.25160639       7.71912636      -0.13336102      -0.20965133       0.11734111      -0.92865716      -0.41792805       1.75079752
Cs       4.97682278      27.74661252      12.30228477       0.09007408       0.04336755      -0.09478925      -0.02603721      -5.29248365       0.23403632
Cs       8.99664435      18.07665132      12.72837890       0.32838659      -0.18346512      -0.08502678       1.92106942      -0.99953031       0.95377678
Cs      13.02552879      20.62204919      16.40029714       0.19099363      -0.24522808       0.08402466      -2.98942782      -3.30623407       0.11668509
Cs       9.55429977      24.69531280       8.08698055      -0.05603535       0.26861667       0.02232667      -0.76038715      -3.72581541      -0.86935136
Cs      13.13183054      28.05525084      12.18172780      -0.00069605      -0.17578034       0.08100656       0.72384052       2.79853984      -0.87802420
Pb       2.65709673       0.82727080      15.95772450      -0.29037789      -0.16263336       0.15336941      -0.63804890      -2.62868173       1.06554021
Pb       6.49632458       1.11744151      16.19245390       0.13256047       0.12390337      -0.09273172      -7.26999258      -2.42988195      -4.99671652
Pb       3.89519341      22.49083307      12.08117630       0.28595837      -0.28498454       0.24811834       2.37261999      -1.21539365      -0.45734170
Pb       0.10569214      22.67117789      11.97412877      -0.02421702      -0.17332359      -0.20945409      -0.12949558       1.11754900      -4.23871908
Pb      10.36077235       1.16157974      16.18611791      -0.01600767       0.04574265      -0.36772238      -0.11968800       4.25494025       0.13175559
Pb      14.45892175       0.74496116      16.29385907       0.01709159       0.25834037      -0.04886226       3.23848375       0.27311057       4.61217368
Pb      11.90256868      22.81234839      12.68822657      -0.29663718      -0.34678579      -0.04393449      -4.16596829       2.07005204       2.15401360
Pb       7.83075905      23.01334116      12.08034771       0.09827575      -0.11476149       0.44218613      -2.75127237      -2.88503266       2.80371240
I        4.84294667      17.08848241      10.38623339      -0.17077969      -0.40046603      -0.52766745      -0.00103278      -0.72162127      -0.29294026
I        2.37162568      21.05304550       9.88086451      -0.36654753      -0.01937547      -0.22174927      -0.24362229      -1.67900355       1.28939569
I        4.87782076      17.04929506      14.30766159      -0.23539182       0.20962325      -0.25493715      -0.52464602      -2.20005986      -1.21494951
I        1.88346081      21.33135033      14.46701753       0.13878813       0.14212267      -0.24865490      -0.67531522       1.41443501      -1.05896000
I        6.38102612      20.30234268      12.14333849      -0.11311105      -0.22238276      -0.01789058      -0.37707871       0.68530266      -1.25704751
I        0.43283187      18.12680010      16.20077190       0.50842369       0.13096765      -0.03106753      -1.65911681       1.78297778      -2.14809044
I        5.59476647      24.07018254      14.28343145       0.34824253       0.02367349       0.11659847       2.82980610       0.51921055      -0.44079047
I        0.54311968      -0.07138219      13.42876666       0.07305847       0.12317597       0.46331695      -1.90755777      -2.13402054       2.31321218
I        5.70784151      23.98434672       9.92010776       0.19536514       0.06921524      -0.05460678       1.06444141       1.26883399      -1.43864699
I        1.11625275       0.01313924       9.52177776      -0.28399849      -0.48345794       0.32134483       1.14579740       3.26506347       1.37342238
I        4.80236056      27.21736768      16.46367675      -0.17463308       0.38338753       0.00581555       1.26061782      -0.22025854      -1.34863983
I        2.31987299      25.00327618      11.88248978      -0.33509602       0.84409845       0.02393044       1.61450612      -1.36613071      -1.58721028
I       12.98768458      16.93411006      10.09822178       0.01109184       0.01570319       0.06854442      -2.87987549      -0.54816501       1.35579863
I       10.19245149      21.72117988      10.27274907      -0.17773419      -0.32843101      -0.37814958      -0.52736626       1.35906455      -3.42515561
I       12.62533035      15.88827261      14.48766151      -0.05804350       0.63323101      -0.60131776       1.75931948       2.18088658       2.45442980
I        9.52314197      21.57838286      14.80727466       0.03066958       0.34365249      -0.52989209      -2.33549298      -0.55001098      -1.43264278
I       13.92882972      19.99018960      12.92084193      -0.22172427      -0.06676453       0.02339027      -1.12122107       2.88938862      -1.59175880
I        8.74095671      18.08008823      16.82330634       0.09236972      -0.03927125      -0.04609821      -1.15042785      -1.00034110       0.35918079
I       13.86710153      24.45034348      14.29469930       0.37904583       0.04898988       0.50894706      -2.51099769       2.65968783      -3.10650595
I        8.28090597      -0.58569584      13.96668535      -0.06932398       0.46652831       0.40047217      -0.33083787      -0.42182676       0.80722045
I       13.77732637      23.62132382      10.26206791      -0.06506840       0.25121442      -0.44602694       3.13140153      -0.51090697      -0.46092728
I        8.47225174      -0.25179853       9.81816996       0.33311909      -0.02905670       0.15618779      -0.87552978       0.14723241       1.93336741
I       12.22079059      27.40222868      16.72652960       0.13001079      -0.12993379      -0.06300148      -1.05799164       0.00591794       1.62779067
I       10.22400465      25.36050748      12.02176868      -0.10368006       0.23349732       0.10910429      -1.19923765      -1.40774061       3.56947521
Cs      17.22999912       3.13772219       3.50040624      -0.02662578       0.03854497       0.05620163       1.68984143      -3.58989283      -1.53916068
Cs      21.56087625       6.01342343       7.83439080      -0.07262932       0.02578806       0.04300096       1.00852402       0.47494036      -1.18168899
Cs      17.81392191      10.25800681      16.85802487      -0.14215012      -0.02728720      -0.14530853       0.97266507      -0.66878319       1.55196489
Cs      21.01827317      13.24709942       3.76855313       0.01203174      -0.02961147       0.03936799       1.74670334       2.61277950       0.74121959
Cs      25.10002828       3.37298059       3.14540824       0.03447578       0.05306636       0.01911135       3.47657043      -2.96448921      -0.48844351
Cs      29.40084658       6.46701178       8.32490904       0.06253772      -0.01735375      -0.24472441      -3.95688655       4.69044112      -1.38130818
Cs      24.38138478      11.14393732      16.14822050       0.19081436      -0.03234321       0.06394214      -1.31965501      -0.83070929       2.76299967
Cs      28.76546883      13.90234793       3.35436725      -0.02877455      -0.20229716       0.14133334      -1.20882038       3.76877551       0.11877152
Pb      18.79617294      15.71981689       8.03412760       0.76964797       0.06504673       0.31608830      -0.06930441      -2.26516795      -0.60093253
Pb      22.85757494      16.01885563       7.84537932      -0.98220055      -0.37644205       0.50472895       2.92192681       2.87152037      -2.49616899
Pb      20.13851207       8.06818495       3.91446450      -0.29487734       0.45451776      -0.17522739      -0.96289761       0.30490314      -4.66125131
Pb      16.05538679       7.99530140       3.61862177       0.19931094      -0.14589690      -0.03562032      -0.79075499       1.59839508      -1.12571765
Pb      26.34240689      15.63999462       7.91377422       0.60120482       0.20521077       0.35831551       0.42718804      -7.51470199      -4.99143693
Pb      30.11555482      15.65071884       7.76276568       0.64395502      -0.53563605       0.34401301       1.23021918       1.14544823       4.04301915
Pb      27.83566037       8.69693142       3.66903106       0.35716284      -0.36528573      -0.04880036      -1.03633224       1.61225489      -0.53925183
Pb      24.07773056       8.13847455       3.18328203       0.08951259       0.02523632       0.34821115       0.03034264      -1.02790269       2.84159021
I       20.92404681       2.31416604       1.81002496       0.01984535      -0.21777829      -0.47171573      -2.67871222      -0.22777885      -1.17259548
I       18.59595446       6.51073445       1.69310226      -0.62251941       0.05220422      -0.14372900      -1.34676321      -1.47512657       3.44586966
I       20.50877630       2.42424340       5.71458957      -0.16816893      -0.21942445       0.32730928      -1.53469041      -1.86180313      -0.49280382
I       18.20583318       6.86440079       5.95654053      -0.37587631      -0.04993019       0.01294061       0.73120777      -0.41821592      -0.90359667
I       22.04935364       5.69955062       3.77019939       0.02000135      -0.28842609      -0.15559106       0.66682621      -2.15313526      -2.70268394
I       16.18264060       3.68484201       7.68751373       0.28983001      -0.20212537      -0.02602369       0.16017755       0.68020151      -3.88926761
I       22.37257739       9.21887152       5.71833700      -0.00328324       0.45080212       0.40321886       1.44243296       4.48070702       0.73711010
I       17.16053384      14.31056840       5.81794068      -0.25101779      -0.29059179      -0.20278272      -1.21585447      -0.28168228      -0.01913903
I       21.69729974       9.60257862       1.45713134       0.10907834       0.07366450      -0.11200686       1.42225911      -0.06782293       4.79651485
I       17.14828301      14.15443386       1.89900983      -0.00484567      -0.21292637       0.08044720      -0.88639787      -1.39920696       1.12347438
I       20.98348194      13.26606430       8.11485926      -0.34966499      -0.16878878      -0.17359558       1.83243881      -1.49760964      -0.29476573
I       18.05292592      10.83977478       3.52357592      -0.19829316      -0.83117906       0.12130923       0.55527931      -2.38571785       0.78869858
I       28.41135653       2.35465185       1.37446651       0.07622929       0.04077637       0.13156940      -2.41725564      -1.10819917       2.58315456
I       26.36104640       7.32519604       1.07172485      -0.19741961       0.01348443      -0.00553335      -3.47076671      -0.01978664      -1.44953202