320
Lattice="25.121854697261806 -0.05977452525107978 -0.12957468506993428 0.07192418218408468 24.82535238426277 -0.21579304325525844 0.12447059888337542 -0.778188195725328 24.81728374174729" Properties=species:S:1:pos:R:3:forces:R:3:momenta:R:3 pbc="T T T"
Cs       9.64893227      14.80028255       6.17023296      -0.06496632      -0.09687053      -0.03048609      -0.59148207      -1.18293000       1.62572379
Cs       3.16797332       8.87178836       5.31982618       0.00181565       0.09304379       0.14120142      -0.39890745       1.64676958      -0.68875276
Cs       3.43744589       9.39394884      11.79704747      -0.03075367       0.00446616      -0.04514821      -0.10068503       0.43585814      -1.22517552
Cs       9.25226074      14.45819944      13.13609036       0.18041571       0.07013449      -0.02599319       1.94198743       1.63262536      -1.99574863
Cs       9.77768751       7.83762646      12.52714605      -0.02862753       0.03633032      -0.00120826       0.71240181      -1.74846388       2.75436173
Cs       3.17315661      15.21378913      11.38401031       0.08628221       0.14514277       0.06547614      -0.28531386      -0.73765835       1.93767993
Cs       3.30566194      15.66447475       5.64406764      -0.07701108       0.08750683      -0.22931186       0.18137939      -1.17358257       1.12627272
Cs       9.50121938       8.77346372       6.64835589       0.03162542      -0.16570075      -0.08381321      -0.25723587      -0.69299195       0.13122377
Pb       0.20844975       5.78024121       9.26945878       0.11468598      -0.03749412      -0.12528119      -0.83044153      -0.54364394       0.77725337
Pb       6.42094342      11.97625009       9.05436002      -0.16605919      -0.22035372       0.01564607       3.40343198      -0.71217151      -0.77630590
Pb      25.14054749      12.03417747       8.97553677       0.24261412      -0.17883926       0.28424404       1.60979747      -0.93153506      -0.69687463
Pb       6.54484807       5.68266434       8.98330152      -0.12959598       0.32445401       0.12792620       2.33216165      -2.03059252      -1.84694480
Pb      25.14935741       5.60842541       2.86049567      -0.16862078       0.11509325      -0.13458145      -2.88770996      -0.90822150      -3.15959752
Pb       6.38514574      11.95215509       2.82772968      -0.13994134       0.02866034       0.17682637      -3.40420337       1.46673929       0.34789706
Pb       0.14383535      11.74647943       2.86825779       0.08716187       0.10665704      -0.08652830       2.76335095       0.85595071      -1.58107431
Pb       6.27714642       5.85299074       2.74592474       0.15905779      -0.10161331       0.30706027      -0.21254190      -1.72788228      -1.94262229
I       24.75065476       8.80487246       9.63016720       0.00348768      -0.06839730       0.00575040      -1.01370656       0.73815715       0.84087978
I        5.57753016      15.09356099       8.35033043       0.27429495      -0.06335818       0.06561964       1.99510755      -1.98007600       0.86288406
I       13.37118553      14.91335827       8.15044872      -0.12656873       0.42444544       0.12806478       2.30251335      -1.26438188       0.93016681
I        7.25569618       8.89399090       9.92436962      -0.18192950      -0.05185838      -0.18949582       0.06543641       2.19891794       0.14604417
I        9.50446261      12.93329736       9.58309195      -0.10930975      -0.04949131      -0.09102129       2.76049045       0.83735849      -1.66770756
I        3.42107507      18.72496946       9.40112343       0.02946686      -0.05937330       0.01844958       2.80752224      -0.01817374      -2.09244450
I        3.13833673      11.43646004       8.55053423       0.31468107      -0.03164689       0.02743186      -1.00911203       2.34828594      -0.00369556
I        9.72035647       5.35009231       8.64200288      -0.27582609      -0.06797747      -0.04821338      -0.35825748       1.61835530      -2.34794533
I       12.23078328      14.97021618       3.24512069      -0.00515972      -0.07761528       0.13292568       0.63584817       0.04208481      -0.40569062
I        5.97927805       8.85431958       2.12371005      -0.07570600       0.06443598      -0.00498763       0.64788199      -1.69562582      -0.31773577
I        0.89509904       8.34731965      14.47379340      -0.10987646       0.17952517       0.06964263       0.01228093       0.03866722      -3.30679034
I        6.71088015      14.65561822      15.97184490       0.06575733       0.12318502      -0.00174184      -0.68490224      -0.28165837       0.81937186
I        3.27094846      11.91332632      16.14446418       0.20456930      -0.00896580      -0.14978061      -3.02129285      -0.54799372       0.44432452
I        9.52725109       5.84704198      15.80424732      -0.14502784      -0.03047002       0.06243038       0.59810898      -2.71089850       1.30425495
I        9.55401145      11.24895288       2.50335936      -0.14507983       0.11298939      -0.01904307       0.32993187      -0.42541412      -0.94674284
I        3.15284471      17.92986677       2.31726835       0.19589132      -0.15172877      -0.02054942       1.49555871      -2.09274707       0.77852981
I       24.53954878      17.29473484      11.95551050       0.06644210      -0.19524156       0.05031689      -0.58593085      -0.16553419      -1.92099950
I        5.92584955      12.47832030      12.22710155      -0.07510319       0.06897472       0.03675132       0.00822814       0.53729413      -0.46116273
I       12.89334248       6.31792913       5.93224171       0.08495373       0.02041015       0.14535070      -0.67990405      -0.36051756       0.33568123
I        6.77045323      11.28633410       6.01371268       0.04628643       0.05905721      -0.10047370       1.37400050      -0.06815801       1.43962045
I       24.83970690      11.28502329       5.94400698      -0.10771978      -0.04494910      -0.06727096       0.18283195      -1.47161339       0.45412846
I        6.01050162      18.86030695       5.98027253       0.05015458      -0.00711455      -0.37832244      -0.28687993      -0.12499347      -1.12173949
I       13.29989325      12.56902471      12.28575492      -0.13751192      -0.16269726      -0.20678085      -3.34002815      -1.46291164      -0.43723079
I        6.82322904       5.02711824      12.12646688       0.06075060      -0.19275519       0.17891840      -1.15929199       1.82853343      -0.27496283
Cs       9.71116757      14.41118845      18.57887483      -0.06496632      -0.09687053      -0.03048609      -0.59148207      -1.18293000       1.62572379
Cs       3.23020862       8.48269426      17.72846805       0.00181565       0.09304379       0.14120142      -0.39890745       1.64676958      -0.68875276
Cs       3.49968119       9.00485474      24.20568934      -0.03075367       0.00446616      -0.04514821      -0.10068503       0.43585814      -1.22517552
Cs       9.19002544      14.84729354       0.72744849       0.18041571       0.07013449      -0.02599319       1.94198743       1.63262536      -1.99574863
Cs       9.71545221       8.22672056       0.11850418      -0.02862753       0.03633032      -0.00120826       0.71240181      -1.74846388       2.75436173
Cs       3.23539191      14.82469503      23.79265218       0.08628221       0.14514277       0.06547614      -0.28531386      -0.73765835       1.93767993
Cs       3.36789724      15.27538065      18.05270951      -0.07701108       0.08750683      -0.22931186       0.18137939      -1.17358257       1.12627272
Cs       9.56345468       8.38436962      19.05699776       0.03162542      -0.16570075      -0.08381321      -0.25723587      -0.69299195       0.13122377
Pb       0.27068505       5.39114711      21.67810065       0.11468598      -0.03749412      -0.12528119      -0.83044153      -0.54364394       0.77725337
Pb       6.48317872      11.58715599      21.46300189      -0.16605919      -0.22035372       0.01564607       3.40343198      -0.71217151      -0.77630590
Pb      25.20278279      11.64508338      21.38417865       0.24261412      -0.17883926       0.28424404       1.60979747      -0.93153506      -0.69687463
Pb       6.60708337       5.29357024      21.39194339      -0.12959598       0.32445401       0.12792620       2.33216165      -2.03059252      -1.84694480
Pb      25.21159271       5.21933132      15.26913755      -0.16862078       0.11509325      -0.13458145      -2.88770996      -0.90822150      -3.15959752
Pb       6.44738104      11.56306099      15.23637155      -0.13994134       0.02866034       0.17682637      -3.40420337       1.46673929       0.34789706
Pb       0.20607065      11.35738533      15.27689966       0.08716187       0.10665704      -0.08652830       2.76335095       0.85595071      -1.58107431
Pb       6.33938172       5.46389664      15.15456661       0.15905779      -0.10161331       0.30706027      -0.21254190      -1.72788228      -1.94262229
I       24.81289006       8.41577837      22.03880908       0.00348768      -0.06839730       0.00575040      -1.01370656       0.73815715       0.84087978
I        5.63976546      14.70446689      20.75897230       0.27429495      -0.06335818       0.06561964       1.99510755      -1.98007600       0.86288406
I       13.43342083      14.52426417      20.55909059      -0.12656873       0.42444544       0.12806478       2.30251335      -1.26438188       0.93016681
I        7.31793148       8.50489680      22.33301149      -0.18192950      -0.05185838      -0.18949582       0.06543641       2.19891794       0.14604417
I        9.56669791      12.54420326      21.99173382      -0.10930975      -0.04949131      -0.09102129       2.76049045       0.83735849      -1.66770756
I        3.48331037      18.33587536      21.80976530       0.02946686      -0.05937330       0.01844958       2.80752224      -0.01817374      -2.09244450
I        3.20057203      11.04736594      20.95917610       0.31468107      -0.03164689       0.02743186      -1.00911203       2.34828594      -0.00369556
I        9.78259177       4.96099821      21.05064475      -0.27582609      -0.06797747      -0.04821338      -0.35825748       1.61835530      -2.34794533
I       12.29301858      14.58112208      15.65376256      -0.00515972      -0.07761528       0.13292568       0.63584817       0.04208481      -0.40569062
I        6.04151335       8.46522548      14.53235192      -0.07570600       0.06443598      -0.00498763       0.64788199      -1.69562582      -0.31773577
I        0.83286374       8.73641375       2.06515153      -0.10987646       0.17952517       0.06964263       0.01228093       0.03866722      -3.30679034
I        6.64864485      15.04471232       3.56320303       0.06575733       0.12318502      -0.00174184      -0.68490224      -0.28165837       0.81937186
I        3.20871316      12.30242042       3.73582231       0.20456930      -0.00896580      -0.14978061      -3.02129285      -0.54799372       0.44432452
I        9.46501579       6.23613608       3.39560545      -0.14502784      -0.03047002       0.06243038       0.59810898      -2.71089850       1.30425495
I        9.61624675      10.85985878      14.91200123      -0.14507983       0.11298939      -0.01904307       0.32993187      -0.42541412      -0.94674284
I        3.21508001      17.54077267      14.72591022       0.19589132      -0.15172877      -0.02054942       1.49555871      -2.09274707       0.77852981
I       24.60178408      16.90564075      24.36415238       0.06644210      -0.19524156       0.05031689      -0.58593085      -0.16553419      -1.92099950
I        5.98808485      12.08922620      24.63574342      -0.07510319       0.06897472       0.03675132       0.00822814       0.53729413      -0.46116273
I       12.95557778       5.92883503      18.34088358       0.08495373       0.02041015       0.14535070      -0.67990405      -0.36051756       0.33568123
I        6.83268853      10.89724000      18.42235455       0.04628643       0.05905721      -0.10047370       1.37400050      -0.06815801       1.43962045
I       24.90194220      10.89592920      18.35264886      -0.10771978      -0.04494910      -0.06727096       0.18283195      -1.47161339       0.45412846
I        6.07273692      18.47121285      18.38891440       0.05015458      -0.00711455      -0.37832244      -0.28687993      -0.12499347      -1.12173949
I       13.23765795      12.95811881      -0.12288695      -0.13751192      -0.16269726      -0.20678085      -3.34002815      -1.46291164      -0.43723079
I        6.88546434       4.63802414      24.53510875       0.06075060      -0.19275519       0.17891840      -1.15929199       1.82853343      -0.27496283
Cs       9.61297018       2.38760636       6.27812948      -0.06496632      -0.09687053      -0.03048609      -0.59148207      -1.18293000       1.62572379
Cs       3.20393541      21.28446455       5.21192966       0.00181565       0.09304379       0.14120142      -0.39890745       1.64676958      -0.68875276
Cs       3.47340798      21.80662503      11.68915095      -0.03075367       0.00446616      -0.04514821      -0.10068503       0.43585814      -1.22517552
Cs       9.21629865       2.04552325      13.24398688       0.18041571       0.07013449      -0.02599319       1.94198743       1.63262536      -1.99574863
Cs       9.81364960      20.25030265      12.41924953      -0.02862753       0.03633032      -0.00120826       0.71240181      -1.74846388       2.75436173
Cs       3.13719452       2.80111294      11.49190683       0.08628221       0.14514277       0.06547614      -0.28531386      -0.73765835       1.93767993
Cs       3.26969985       3.25179856       5.75196416      -0.07701108       0.08750683      -0.22931186       0.18137939      -1.17358257       1.12627272
Cs       9.53718147      21.18613991       6.54045937       0.03162542      -0.16570075      -0.08381321      -0.25723587      -0.69299195       0.13122377
Pb       0.24441184      18.19291740       9.16156226       0.11468598      -0.03749412      -0.12528119      -0.83044153      -0.54364394       0.77725337
Pb       6.45690551      24.38892628       8.94646350      -0.16605919      -0.22035372       0.01564607       3.40343198      -0.71217151      -0.77630590
Pb      25.17650958      24.44685367       8.86764025       0.24261412      -0.17883926       0.28424404       1.60979747      -0.93153506      -0.69687463
Pb       6.58081016      18.09534053       8.87540500      -0.12959598       0.32445401       0.12792620       2.33216165      -2.03059252      -1.84694480
Pb      25.18531950      18.02110161       2.75259915      -0.16862078       0.11509325      -0.13458145      -2.88770996      -0.90822150      -3.15959752
Pb       6.42110783      24.36483128       2.71983316      -0.13994134       0.02866034       0.17682637      -3.40420337       1.46673929       0.34789706
Pb       0.17979744      24.15915562       2.76036127       0.08716187       0.10665704      -0.08652830       2.76335095       0.85595071      -1.58107431
Pb       6.31310851      18.26566693       2.63802822       0.15905779      -0.10161331       0.30706027      -0.21254190      -1.72788228      -1.94262229
I       24.78661685      21.21754866       9.52227068       0.00348768      -0.06839730       0.00575040      -1.01370656       0.73815715       0.84087978
I        5.54156807       2.68088480       8.45822695       0.27429495      -0.06335818       0.06561964       1.99510755      -1.98007600       0.86288406
I       13.33522344       2.50068208       8.25834524      -0.12656873       0.42444544       0.12806478       2.30251335      -1.26438188       0.93016681
I        7.29165827      21.30666709       9.81647310      -0.18192950      -0.05185838      -0.18949582       0.06543641       2.19891794       0.14604417
I        9.46850052       0.52062117       9.69098847      -0.10930975      -0.04949131      -0.09102129       2.76049045       0.83735849      -1.66770756
I        3.38511298       6.31229327       9.50901995       0.02946686      -0.05937330       0.01844958       2.80752224      -0.01817374      -2.09244450
I        3.17429882      23.84913623       8.44263771       0.31468107      -0.03164689       0.02743186      -1.00911203       2.34828594      -0.00369556
I        9.75631856      17.76276850       8.53410636      -0.27582609      -0.06797747      -0.04821338      -0.35825748       1.61835530      -2.34794533
I       12.19482119       2.55753999       3.35301721      -0.00515972      -0.07761528       0.13292568       0.63584817       0.04208481      -0.40569062
I        6.01524014      21.26699577       2.01581353      -0.07570600       0.06443598      -0.00498763       0.64788199      -1.69562582      -0.31773577
I        0.93106113      20.75999584      14.36589688      -0.10987646       0.17952517       0.06964263       0.01228093       0.03866722      -3.30679034
I        6.67491806       2.24294203      16.07974142       0.06575733       0.12318502      -0.00174184      -0.68490224      -0.28165837       0.81937186
I        3.23498637      -0.49934987      16.25236070       0.20456930      -0.00896580      -0.14978061      -3.02129285      -0.54799372       0.44432452
I        9.56321318      18.25971817      15.69635080      -0.14502784      -0.03047002       0.06243038       0.59810898      -2.71089850       1.30425495
I        9.58997354      23.66162907       2.39546284      -0.14507983       0.11298939      -0.01904307       0.32993187      -0.42541412      -0.94674284
I        3.11688262       5.51719058       2.42516487       0.19589132      -0.15172877      -0.02054942       1.49555871      -2.09274707       0.77852981
I       24.50358669       4.88205865      12.06340703       0.06644210      -0.19524156       0.05031689      -0.58593085      -0.16553419      -1.92099950
I        5.88988746       0.06564411      12.33499807      -0.07510319       0.06897472       0.03675132       0.00822814       0.53729413      -0.46116273
I       12.92930457      18.73060532       5.82434519       0.08495373       0.02041015       0.14535070      -0.67990405      -0.36051756       0.33568123
I        6.80641532      23.69901029       5.90581616       0.04628643       0.05905721      -0.10047370       1.37400050      -0.06815801       1.43962045
I       24.87566899      23.69769949       5.83611046      -0.10771978      -0.04494910      -0.06727096       0.18283195      -1.47161339       0.45412846
I        5.97453953       6.44763076       6.08816905       0.05015458      -0.00711455      -0.37832244      -0.28687993      -0.12499347      -1.12173949
I       13.26393116       0.15634852      12.39365144      -0.13751192      -0.16269726      -0.20678085      -3.34002815      -1.46291164      -0.43723079
I        6.85919113      17.43979443      12.01857036       0.06075060      -0.19275519       0.17891840      -1.15929199       1.82853343      -0.27496283
Cs       9.67520548       1.99851226      18.68677135      -0.06496632      -0.09687053      -0.03048609      -0.59148207      -1.18293000       1.62572379
Cs       3.26617071      20.89537045      17.62057153       0.00181565       0.09304379       0.14120142      -0.39890745       1.64676958      -0.68875276
Cs       3.53564328      21.41753093      24.09779282      -0.03075367       0.00446616      -0.04514821      -0.10068503       0.43585814      -1.22517552
Cs       9.15406335       2.43461735       0.83534501       0.18041571       0.07013449      -0.02599319       1.94198743       1.63262536      -1.99574863
Cs       9.75141430      20.63939675       0.01060766      -0.02862753       0.03633032      -0.00120826       0.71240181      -1.74846388       2.75436173
Cs       3.19942982       2.41201884      23.90054870       0.08628221       0.14514277       0.06547614      -0.28531386      -0.73765835       1.93767993
Cs       3.33193515       2.86270446      18.16060603      -0.07701108       0.08750683      -0.22931186       0.18137939      -1.17358257       1.12627272
Cs       9.59941677      20.79704581      18.94910124       0.03162542      -0.16570075      -0.08381321      -0.25723587      -0.69299195       0.13122377
Pb       0.30664714      17.80382330      21.57020413       0.11468598      -0.03749412      -0.12528119      -0.83044153      -0.54364394       0.77725337
Pb       6.51914081      23.99983218      21.35510537      -0.16605919      -0.22035372       0.01564607       3.40343198      -0.71217151      -0.77630590
Pb      25.23874488      24.05775957      21.27628212       0.24261412      -0.17883926       0.28424404       1.60979747      -0.93153506      -0.69687463
Pb       6.64304546      17.70624643      21.28404687      -0.12959598       0.32445401       0.12792620       2.33216165      -2.03059252      -1.84694480
Pb      25.24755480      17.63200751      15.16124102      -0.16862078       0.11509325      -0.13458145      -2.88770996      -0.90822150      -3.15959752
Pb       6.48334313      23.97573718      15.12847503      -0.13994134       0.02866034       0.17682637      -3.40420337       1.46673929       0.34789706
Pb       0.24203274      23.77006152      15.16900314       0.08716187       0.10665704      -0.08652830       2.76335095       0.85595071      -1.58107431
Pb       6.37534381      17.87657283      15.04667009       0.15905779      -0.10161331       0.30706027      -0.21254190      -1.72788228      -1.94262229
I       24.84885215      20.82845456      21.93091255       0.00348768      -0.06839730       0.00575040      -1.01370656       0.73815715       0.84087978
I        5.60380337       2.29179070      20.86686882       0.27429495      -0.06335818       0.06561964       1.99510755      -1.98007600       0.86288406
I       13.39745874       2.11158798      20.66698711      -0.12656873       0.42444544       0.12806478       2.30251335      -1.26438188       0.93016681
I        7.35389357      20.91757299      22.22511497      -0.18192950      -0.05185838      -0.18949582       0.06543641       2.19891794       0.14604417
I        9.53073582       0.13152707      22.09963034      -0.10930975      -0.04949131      -0.09102129       2.76049045       0.83735849      -1.66770756
I        3.44734828       5.92319917      21.91766182       0.02946686      -0.05937330       0.01844958       2.80752224      -0.01817374      -2.09244450
I        3.23653412      23.46004213      20.85127958       0.31468107      -0.03164689       0.02743186      -1.00911203       2.34828594      -0.00369556
I        9.81855386      17.37367440      20.94274823      -0.27582609      -0.06797747      -0.04821338      -0.35825748       1.61835530      -2.34794533
I       12.25705649       2.16844589      15.76165908      -0.00515972      -0.07761528       0.13292568       0.63584817       0.04208481      -0.40569062
I        6.07747544      20.87790167      14.42445540      -0.07570600       0.06443598      -0.00498763       0.64788199      -1.69562582      -0.31773577
I        0.86882583      21.14908994       1.95725501      -0.10987646       0.17952517       0.06964263       0.01228093       0.03866722      -3.30679034
I        6.61268276       2.63203613       3.67109955       0.06575733       0.12318502      -0.00174184      -0.68490224      -0.28165837       0.81937186
I        3.17275107      -0.11025577       3.84371883       0.20456930      -0.00896580      -0.14978061      -3.02129285      -0.54799372       0.44432452
I        9.50097788      18.64881227       3.28770893      -0.14502784      -0.03047002       0.06243038       0.59810898      -2.71089850       1.30425495
I        9.65220884      23.27253497      14.80410471      -0.14507983       0.11298939      -0.01904307       0.32993187      -0.42541412      -0.94674284
I        3.17911792       5.12809648      14.83380674       0.19589132      -0.15172877      -0.02054942       1.49555871      -2.09274707       0.77852981
I       24.56582199       4.49296455      24.47204890       0.06644210      -0.19524156       0.05031689      -0.58593085      -0.16553419      -1.92099950
I        5.95212276      -0.32344999      24.74363994      -0.07510319       0.06897472       0.03675132       0.00822814       0.53729413      -0.46116273
I       12.99153987      18.34151122      18.23298706       0.08495373       0.02041015       0.14535070      -0.67990405      -0.36051756       0.33568123
I        6.86865062      23.30991619      18.31445803       0.04628643       0.05905721      -0.10047370       1.37400050      -0.06815801       1.43962045
I       24.93790429      23.30860539      18.24475233      -0.10771978      -0.04494910      -0.06727096       0.18283195      -1.47161339       0.45412846
I        6.03677483       6.05853666      18.49681092       0.05015458      -0.00711455      -0.37832244      -0.28687993      -0.12499347      -1.12173949
I       13.20169586       0.54544262      -0.01499043      -0.13751192      -0.16269726      -0.20678085      -3.34002815      -1.46291164      -0.43723079
I        6.92142643      17.05070033      24.42721223       0.06075060      -0.19275519       0.17891840      -1.15929199       1.82853343      -0.27496283
Cs      22.20985962      14.77039529       6.10544562      -0.06496632      -0.09687053      -0.03048609      -0.59148207      -1.18293000       1.62572379
Cs      15.72890067       8.84190110       5.25503884       0.00181565       0.09304379       0.14120142      -0.39890745       1.64676958      -0.68875276
Cs      15.99837324       9.36406158      11.73226013      -0.03075367       0.00446616      -0.04514821      -0.10068503       0.43585814      -1.22517552
Cs      21.81318809      14.42831218      13.07130302       0.18041571       0.07013449      -0.02599319       1.94198743       1.63262536      -1.99574863
Cs      22.33861486       7.80773920      12.46235871      -0.02862753       0.03633032      -0.00120826       0.71240181      -1.74846388       2.75436173
Cs      15.73408396      15.18390187      11.31922297       0.08628221       0.14514277       0.06547614      -0.28531386      -0.73765835       1.93767993
Cs      15.86658929      15.63458749       5.57928030      -0.07701108       0.08750683      -0.22931186       0.18137939      -1.17358257       1.12627272
Cs      22.06214673       8.74357646       6.58356855       0.03162542      -0.16570075      -0.08381321      -0.25723587      -0.69299195       0.13122377
Pb      12.76937710       5.75035395       9.20467144       0.11468598      -0.03749412      -0.12528119      -0.83044153      -0.54364394       0.77725337
Pb      18.98187077      11.94636283       8.98957268      -0.16605919      -0.22035372       0.01564607       3.40343198      -0.71217151      -0.77630590
Pb      12.57962014      12.06406474       9.04032412       0.24261412      -0.17883926       0.28424404       1.60979747      -0.93153506      -0.69687463
Pb      19.10577542       5.65277708       8.91851418      -0.12959598       0.32445401       0.12792620       2.33216165      -2.03059252      -1.84694480
Pb      12.58843006       5.63831268       2.92528302      -0.16862078       0.11509325      -0.13458145      -2.88770996      -0.90822150      -3.15959752
Pb      18.94607309      11.92226783       2.76294234      -0.13994134       0.02866034       0.17682637      -3.40420337       1.46673929       0.34789706
Pb      12.70476270      11.71659217       2.80347045       0.08716187       0.10665704      -0.08652830       2.76335095       0.85595071      -1.58107431
Pb      18.83807377       5.82310348       2.68113740       0.15905779      -0.10161331       0.30706027      -0.21254190      -1.72788228      -1.94262229
I       12.18972741       8.83475973       9.69495455       0.00348768      -0.06839730       0.00575040      -1.01370656       0.73815715       0.84087978
I       18.13845751      15.06367373       8.28554309       0.27429495      -0.06335818       0.06561964       1.99510755      -1.98007600       0.86288406
I        0.81025818      14.94324553       8.21523606      -0.12656873       0.42444544       0.12806478       2.30251335      -1.26438188       0.93016681
I       19.81662353       8.86410364       9.85958228      -0.18192950      -0.05185838      -0.18949582       0.06543641       2.19891794       0.14604417
I       22.06538996      12.90341010       9.51830461      -0.10930975      -0.04949131      -0.09102129       2.76049045       0.83735849      -1.66770756
I       15.98200242      18.69508220       9.33633609       0.02946686      -0.05937330       0.01844958       2.80752224      -0.01817374      -2.09244450
I       15.69926408      11.40657278       8.48574689       0.31468107      -0.03164689       0.02743186      -1.00911203       2.34828594      -0.00369556
I       22.28128382       5.32020505       8.57721554      -0.27582609      -0.06797747      -0.04821338      -0.35825748       1.61835530      -2.34794533
I       24.79171063      14.94032892       3.18033335      -0.00515972      -0.07761528       0.13292568       0.63584817       0.04208481      -0.40569062
I       18.54020540       8.82443232       2.05892271      -0.07570600       0.06443598      -0.00498763       0.64788199      -1.69562582      -0.31773577
I       13.45602639       8.31743239      14.40900606      -0.10987646       0.17952517       0.06964263       0.01228093       0.03866722      -3.30679034
I       19.27180750      14.62573096      15.90705756       0.06575733       0.12318502      -0.00174184      -0.68490224      -0.28165837       0.81937186
I       15.83187581      11.88343906      16.07967684       0.20456930      -0.00896580      -0.14978061      -3.02129285      -0.54799372       0.44432452
I       22.08817844       5.81715472      15.73945998      -0.14502784      -0.03047002       0.06243038       0.59810898      -2.71089850       1.30425495