320
Lattice="31.392636507215773 -0.04481615214523286 0.09492011689125937 0.1392903615087138 28.887165468702893 0.25788863917263216 -0.2799812260619887 -0.14238296324623026 16.953981605175922" Properties=species:S:1:pos:R:3:forces:R:3:momenta:R:3 energy=-977.96884021527 stress="0.0 0.0 0.0 0.0 0.0 0.0 0.0 0.0 0.0" pbc="T T T"
Cs       1.38558306       3.33049544       3.25733286      -0.05823909       0.07794303       0.01212998       1.14689085      -5.09473528      -3.71178791
Cs       5.64215426       6.46163040       7.49857540       0.06626832      -0.26252234      -0.08841567      -1.16570062       1.47630631      -2.35237432
Cs       1.57015008      10.11296272      15.66961854       0.01777880       0.12693499      -0.02118158       0.85858091      -0.16489160       1.57130697
Cs       5.62296126      13.11913303       3.24728383      -0.10560818       0.07199044       0.04470784       0.07384718      -0.17629517      -3.26793641
Cs       9.07866832       3.15652146       2.84834709       0.01481869       0.05324986       0.09285956      -1.54507628       1.76195734       1.65288181
Cs      12.84935345       6.00271442       7.50913568       0.27679600      -0.15447684       0.06769479      -3.07137830      -0.91744761       0.29282720
Cs       8.96467001      10.79211801      15.77616495       0.07724471      -0.09998046       0.11810050       2.27125920       0.02362301      -1.85795033
Cs      13.27905208      13.00798743       3.10352712       0.01045640       0.00051594       0.19453641       0.75584112       0.08819940       0.19329976
Pb       3.09928270      15.64217307       7.50666150      -0.42882060      -0.24527150      -0.08991489      -1.58072603      -0.68302829       4.59744910
Pb       6.95011233      15.43866593       7.64407282      -0.44070252       0.23272228      -0.01940402      -0.31500681      -1.95769349      -0.38292923
Pb       4.42707380       8.34598402       3.19891594      -0.58788255       0.00897412      -0.31487481      -1.25840038       3.11639511       1.25420778
Pb       0.43503508       8.45286079       2.87659654      -0.04157681      -0.27675489       0.03205309      -1.81008774      -2.47065877       2.57498272
Pb      10.72465458      15.40491076       7.84913570       0.20934703       0.25677779      -0.25475494       0.54749059      -2.00461321       1.34257342
Pb      14.59468816      15.57202559       7.96073754       0.30466098      -0.09798427      -0.30388917      -1.39447469      -2.53130206       0.51361849
Pb      12.07411958       8.06958596       3.30402077      -0.04734052       0.30407651      -0.02351169      -1.83791204       3.51470592      -1.71787848
Pb       8.14727772       8.31639992       3.13989486       0.18562469       0.03577377       0.06633275      -2.05980087       0.33931726      -0.78092719
I        4.48908891       2.58578478       1.13037530       0.11081756      -0.09871996       0.10301051      -0.32671040      -0.86963623      -4.88397135
I        2.21714218       7.05621492       0.76995886       0.60894738       0.14750046       0.33171196      -0.47675777       0.87152863      -2.96890968
I        4.75214374       2.57740030       5.31938756      -0.02107385       0.10681621      -0.20571005      -0.69952932       1.54471852      -0.72455171
I        2.19279888       7.17964910       5.34532292       0.30513894       0.16216039      -0.41020988      -1.32035935      -1.64101167      -3.14996537
I        6.13141667       5.82878924       3.13378650       0.10520860      -0.25617658      -0.13159396       3.01957514       0.64370362      -0.15161548
I        0.67155654       3.74815487       6.94644865      -0.00288160      -0.24249554       0.12790578       2.52750015       2.86540087       2.65221796
I        6.29956638       9.36845617       5.70448398      -0.16878919      -0.00229966      -0.39260639      -0.67393869       0.08040653      -1.21473502
I        1.00878645      13.99757501       5.28890895      -0.18970821       0.35882555       0.35840865       4.63411962       1.36182023       3.40914822
I        6.56664965       9.98427206       0.93987919      -0.35196905      -0.32197386       0.45541633       1.45968236      -1.61176339      -0.37360673
I        0.96674392      14.09444652       0.73527770      -0.03506393       0.00794696       0.24068526      -3.41039090       1.63242628       0.37532358
I        4.99023080      12.95089432       7.32110357      -0.36786315       0.12363275       0.01048920       1.75737668      -1.63644658       0.35615630
I        2.40121756      10.86263801       3.01598513       0.09105239       0.14997992       0.03876036      -0.83306855      -0.53999654      -0.40838323
I       12.73768950       2.34555998       1.16482160      -0.03170350      -0.01322175      -0.27487828       0.84617753      -0.48290255      -1.71533397
I       10.08748230       7.20678886       0.87515253      -0.00675736       0.02096533       0.00799859       0.79305266      -1.07509532       1.77438754
I       12.21524557       2.18493885       5.10764829       0.17193764      -0.00263096       0.24345287      -2.14945477      -0.17015604       0.73687232
I       10.06520606       6.58737331       5.20966443      -0.11449490      -0.15507649       0.13880317       1.13621056      -2.80706983       2.66511931
I       14.20885458       5.81328174       2.99668340       0.00146105      -0.34517715       0.09186426      -1.19792928      -1.14550923       0.18072870
I        8.47805718       3.45126014       7.68145850      -0.14199768       0.00252346      -0.01741166      -2.16213581      -2.74488866       1.79721829
I       14.01299471       9.49427128       5.55829116       0.11958302      -0.09636884      -0.20035063      -0.55287474       0.34452898       0.54370383
I        8.81788563      14.20897819       5.55143795       0.10795857      -0.12988637      -0.23560981       0.05257554       0.99044613       1.27763736
I       13.94544836       9.49884512       1.04986034       0.13775204       0.12076328      -0.01931225      -1.55793464      -0.72252768       0.02570343
I        8.47301461      14.13527760       1.40416073       0.17086584      -0.04305172       0.04552998       1.30628218      -0.25056031      -0.43011060
I       12.67137582      13.05882671       7.40853762      -0.03127859      -0.35508499       0.10806816      -0.13555002      -1.08621912       0.73879988
I       10.26907952      10.68632531       3.82578964      -0.12293494       0.21750074      -0.11131643       2.61583973       1.16054002      -2.08619181
Cs       0.90771509       2.99730107      11.54869394       0.04561355       0.13608799      -0.09851383      -1.53146805      -1.50559973       0.54255789
Cs       5.36669540       5.51790082      15.35596314      -0.11298331       0.20605762       0.21260792      -0.72496516      -2.26214466      -1.45760975
Cs       1.42160382      10.63138977       7.58251654       0.13470068       0.12066095      -0.07224134       0.21988659      -1.31086544      -3.29276210
Cs       5.72400385      12.78283086      12.00027657      -0.14459825       0.00889746      -0.09789288      -0.09302611       1.01064436       0.20805712
Cs       8.84873794       2.95665191      11.41034879       0.12736862       0.01783346       0.10739045       2.81518345       0.95695043      -1.30652909
Cs      13.02575291       5.70401883      15.74550453       0.03405782       0.00224855       0.07490175       1.72950527       1.53791979       1.79479836
Cs       9.45882121      10.63298383       7.57685993       0.08325506       0.01899200       0.00896550       3.43127196      -0.20274485       1.25688069
Cs      12.81608286      13.65563102      11.98036338       0.04247914      -0.28265214       0.05107971       3.01805988      -0.71141269       1.82828294
Pb       2.81166579      15.37425371      15.67716796      -0.43338132       0.00448828       0.38307953      -1.01074262       5.95153127       2.58514423
Pb       6.61330152      15.43169992      15.88932246       0.06879091       0.02243044       0.52565028       0.78240263      -2.13944098       1.54576595
Pb       3.98530138       7.99744961      11.37745533      -0.18628523      -0.00165291       0.16519835       0.77837977      -3.85061493      -1.53807902
Pb       0.11886940       7.83339284      11.22485794      -0.25717544       0.26838259       0.26375818       0.02409466       1.37533911       1.10466419
Pb      10.63246350      15.50673662      16.56816667       0.03642479      -0.15469173      -0.03739599      -0.50798962       2.65826271       1.40218779
Pb      14.69038039      15.15851500      16.53976213      -0.17926024      -0.17934043      -0.42586319      -0.91980126       0.32169167       2.70311356
Pb      11.87543182       8.16139815      11.78083477       0.01351874       0.23094890      -0.14318125       4.78992029      -0.72290459       2.53442871
Pb       7.91478301       8.27739235      11.83628512      -0.06239686      -0.18665722       0.01970067       0.53971726       0.69954813      -0.03180236
I        4.47472420       2.02333885       9.79365161       0.02205010      -0.04552175      -0.23636526      -0.49010176      -1.69733912      -0.78719666
I        2.03578706       6.58666161       9.08168224       0.23579329       0.17031824       0.25905878      -2.34360229       1.63645312      -0.75553081
I        4.61529789       2.37409186      13.61907576      -0.15634675       0.04731754       0.08742850      -0.54078652      -3.34932178       3.56687618
I        1.97104626       6.88035463      13.65055797      -0.04738976      -0.34376007       0.12656460       2.78644418       2.90051035      -0.10632910
I        6.19093551       5.56692959      11.16577883      -0.08733466       0.01752517       0.15771803      -2.15566505       1.86593587      -2.08849750
I        0.44733442       3.50508577      16.28627288      -0.09331468      -0.15154934      -0.06863964       0.20214213       0.26882313       2.47932927
I        5.62052330       9.45947626      13.93458481       0.02957833      -0.28588847      -0.23419518      -0.57376269      -0.73229936       1.06376384
I        0.52386515      14.06932987      13.51904144       0.33140665      -0.09211883      -0.17002964       0.84946739      -0.57314010      -1.15716806
I        5.84779673       9.73731535       9.67170841       0.43563509       0.03445532      -0.12190874      -3.22493681       1.82956664       1.86885645
I        0.83461104      14.34201411       9.76501202       0.21503817      -0.05822671      -0.13417947      -0.30478947       1.49710170       3.21075837
I        4.60499272      12.78060639      15.75354024      -0.00691767       0.21039914      -0.05121802       3.03972468      -3.65803498      -3.09889441
I        2.20287789      10.56278984      11.43487773      -0.17849427       0.06717653      -0.09042284       0.33404819      -1.30750294       1.21063750
I       12.26308628       1.99262848       9.57154552       0.05742281       0.27504249       0.11678180       0.71319211      -0.09262346      -0.43783904
I        9.72576546       7.28101076       9.39365750       0.04687627      -0.03336117      -0.02044867      -0.55347531       1.91601084       0.08899287
I       12.53054519       2.05105371      13.53234635      -0.14916365       0.04840848      -0.01200712       0.61855074      -2.52585848      -1.12639660
I       10.05261125       6.44807293      13.73921925      -0.41152938       0.16937324      -0.13228487      -1.28630368       2.42584925      -0.43688860
I       13.74810084       5.63810973      11.94405217      -0.01640028      -0.27365208      -0.17093660       0.85281277       0.99401517      -1.33699392
I        8.48018584       3.51402344      16.06579219      -0.02693993       0.15813343       0.00022653      -0.87723133      -0.53383029       0.38846490
I       13.82465224       9.40704336      14.02420525      -0.20601466       0.17588747       0.28338404      -0.29179532       1.90420381       2.40559398
I        8.82727148      14.36315811      14.03917872       0.16047423      -0.10087417      -0.28206456       1.46439925       0.65015195      -0.23749425
I       13.79005152       9.65828658       9.62501901       0.25274224      -0.25195381       0.40173807       1.88071191      -0.84488964       0.14380374
I        8.84618150      14.12347912       9.91972272      -0.30298586      -0.10981247       0.16348393       3.75216412      -3.27110717       1.46297898
I       12.30565118      12.79169171      16.28235970       0.03359258      -0.01492490       0.04350768      -0.26536051      -1.67602668       1.46376357
I        9.78604400      10.72574268      12.21588629       0.16544982       0.17455645      -0.03043011      -1.66967192       1.75532937      -1.63843840
Cs       1.33922729      18.00265119       3.10023995       0.08661986      -0.24820775       0.06007201      -0.59162548      -1.41123655      -2.61655821
Cs       5.76384486      20.42924964       7.89951119      -0.09204963       0.02977415      -0.04259835      -2.31793912       0.88723364      -1.90039261
Cs       1.38991146      24.81655144      15.66871718       0.14176280      -0.00654961       0.23440600      -0.00776182      -0.98288699       0.77744091
Cs       5.48522665      27.27904300       3.20655559       0.03144961       0.12427659      -0.03466639       2.19922042       0.82681935      -1.11185458
Cs       9.44961695      17.81399777       3.61876579       0.09196900      -0.00534690       0.03377731       3.26387279       0.86082178       0.28458460
Cs      13.53563257      20.68363036       8.09948601      -0.05585899      -0.04545488      -0.16833179      -1.98930059       0.95017194       1.80344184
Cs       9.67671842      24.79508149      16.22401650      -0.05372801      -0.09926330       0.01445958       1.62480607      -0.22777676       0.92081963
Cs      13.12757937      27.69190734       3.44640849      -0.03211790      -0.08314791      -0.00929500       2.18033413       4.60081503       1.03835940
Pb       2.62943628       1.17149136       7.20320557       0.09960262       0.02888943       0.19176850       1.31152681      -1.22580731       2.20482505
Pb       6.40726873       0.92478063       7.35957004       0.04464577       0.06205053       0.14375168      -0.48521249       3.44052424      -1.63382741
Pb       4.25171554      22.61049273       3.45009915      -0.06179058      -0.07537528       0.07038493      -1.28729338      -0.64945508      -0.49437228
Pb       0.25523623      22.58186196       3.47364180      -0.15073930       0.27284203       0.25701503      -3.73893606       0.08276194      -3.68789204
Pb      10.27562854       0.81734363       7.39908223       0.34338680      -0.02471309      -0.19084437      -1.14823169      -2.85097107       1.47758244
Pb      14.32683440       0.90998947       7.31376944       0.04794054      -0.17050090       0.17045429      -0.58041823       2.90140284       0.57978369
Pb      11.97075776      22.79487499       3.59679763       0.09232282      -0.21327380      -0.02748437      -1.20816582       2.39421898      -0.19640999
Pb       8.07151302      22.35996314       3.21158077       0.56100577       0.21433412       0.20443417       4.18878740      -2.59057506      -1.07907461
I        4.69023130      16.78247114       1.16102864      -0.02818272      -0.08366179      -0.06623237       1.83641014      -1.05297082      -0.34650565
I        2.16225284      21.07663901       1.53710892       0.07014579       0.03098166      -0.41226848      -2.94565235      -1.67739710      -1.36881066
I        4.82211478      17.15429858       5.38348119       0.19718617      -0.34144344       0.39004234       0.90030930      -0.66931133       1.53793958
I        2.23058926      21.44582193       5.78009904       0.25325648       0.10793144      -0.21488249      -0.89423846       0.04797773      -1.42757980
I        6.27543042      19.92792803       3.34316893      -0.20319789      -0.04016809      -0.05135517       1.73495661      -0.63978046      -2.01890983
I        0.69796892      18.12244973       7.48817322       0.20411363      -0.39298992      -0.00801135       1.46548931      -2.63043525       0.11650074
I        6.42742628      23.71285875       5.49101136      -0.24486161       0.23500219       0.27021688       2.68110280       1.59716169       1.07778983
I        0.78198931       0.01009267       4.90762020      -0.01569987      -0.26175432      -0.27297819       1.23291998      -1.01245528       0.22840576
I        6.34041593      23.75808076       0.94908371      -0.30151355      -0.11527980       0.27253698      -1.43665840       1.11594746       0.94864910
I        0.92936598      -0.81871489       0.64815820      -0.05243256       0.03577569       0.19153465       2.77956675      -2.47764815      -0.16623100
I        4.44804295      27.30383788       7.27967086       0.20792507       0.07489627      -0.06995333      -1.51673277       0.08420767       2.54708416
I        2.43899473      25.13840649       3.66246968      -0.11486012      -0.04234470      -0.05056248      -0.62540454       0.49850144      -1.23678205
I       13.18246873      16.69683072       1.70035843      -0.28914776       0.10823314       0.20509640      -1.77587997       0.41343419       2.20040442
I       10.31297322      20.92449221       1.41193467       0.17939793       0.11496738      -0.06418768       2.86256112       0.88600969       0.45387605
I       12.67426876      16.92192446       5.88846089      -0.01461434       0.09507025      -0.21672364      -6.69201651       1.54294393      -0.81409191
I       10.09115325      21.32032630       5.77489191      -0.01502295       0.23243132      -0.23747481       2.72362605      -0.68744378      -0.41498050
I       14.08042092      20.10910262       4.00081659       0.00688623      -0.00080582      -0.14858054      -0.78123381      -2.26965375       0.56813227
I        8.71973698      18.01595120       7.64603735       0.04987725       0.15298549       0.09847655       2.62074410      -2.00865976       0.86881574
I       14.23874741      23.93404483       5.63609423      -0.06628731       0.19367966       0.08318968       3.74797637      -1.53737979       0.96084120
I        8.29706565      -0.26807957       5.02521197       0.00598072      -0.00639127       0.08013283       3.65789944       0.84617289       0.93133668
I       14.03444097      23.73654619       1.12633898       0.18047057      -0.17087560       0.33697265      -1.41954597       1.21999896       1.67350929
I        8.87860637      -0.20153078       0.92589998      -0.26891385      -0.16230278       0.34191944       0.22920032       1.42961281      -2.26994514
I       12.50646369      27.21593468       7.67263821      -0.05009519       0.06483517      -0.06130399      -2.90834689      -0.27988043      -1.77946565
I        9.96745975      25.25113969       3.18438422       0.01834082      -0.18748013       0.07381313      -2.08741790       1.63151672       1.36867341
Cs       0.97103585      17.39925604      11.88919298       0.01314203       0.14032339      -0.10154454       2.71379777      -2.47919598      -0.35860361
Cs       5.12787217      19.80303683      16.26542784       0.00794157       0.20247101      -0.03875576       1.87635263      -2.69489525       0.48523309
Cs       1.63666780      24.86001783       7.74385789      -0.00921111      -0.04677652      -0.03209229      -2.47333144       0.24935757       3.80488403
Cs       5.25260530      27.44578860      12.02043170       0.01633469       0.02412146      -0.06629211      -0.21246020      -2.59399038      -0.36500567
Cs       9.47706048      18.11889912      11.87101523      -0.06960279       0.00512734       0.06445855      -0.80207372      -0.86308666      -1.40873869
Cs      13.49245241      20.55050387      16.53496348      -0.02440962      -0.01767972      -0.08377465      -0.31740426      -2.25241121      -5.87274342
Cs       8.85340000      25.27065077       8.13957911       0.21384506      -0.09334384      -0.21184676       3.90670292       1.38267354       1.68413122
Cs      13.41094415      27.68234258      12.23847699      -0.12922430      -0.15833498      -0.12243917      -0.46565821       1.45747199       0.28713822
Pb       2.48342935       1.05807569      15.79687303       0.07449722      -0.05489100      -0.04752819       0.85460651      -3.89359999       0.66004875
Pb       6.32086727       1.10185902      15.97006157       0.29925228      -0.00426800      -0.02071824       1.35930058      -3.16286629       0.45757274
Pb       3.89149451      22.72255207      12.17028602       0.30400571       0.25440476      -0.43685507       1.98887444      -1.03238262       0.99767042
Pb       0.08805471      22.72050249      11.82980854      -0.05302270      -0.24028098      -0.16095776       0.54151285       0.98162816       3.31050354
Pb      10.41210669       0.92279104      15.88499963       0.24865717       0.39108019      -0.08763090      -1.88487194       3.10723793       3.61703785
Pb      14.46227020       0.86204053      15.83295275      -0.38073557       0.16984695       0.16881073      -1.47749400      -0.30064085      -1.56488185
Pb      11.90078354      22.62838053      11.95141871      -0.06443725       0.19365422      -0.13058020       2.12384230      -2.19181222       1.34033197
Pb       7.94317259      22.71666114      11.84298006      -0.13000750       0.31841436      -0.11609749       0.00077940       0.35437088      -1.66390537
I        4.86127987      16.53505135       9.99883373      -0.03830169       0.06708359      -0.12981503      -0.90287289       0.48713670      -0.25969046
I        2.14638485      21.11410001       9.82338813       0.16240083       0.22290026       0.24555690      -1.34020207       0.91256749      -0.15870420
I        4.82698526      16.83409527      13.74300584      -0.07822891       0.10506989      -0.22890020       0.98801057       1.22006985      -0.72239748
I        1.96088906      21.54134806      14.23473894       0.01623732      -0.08589598       0.17395708      -0.17813507       1.49132233      -0.98273237
I        5.86275250      20.28831555      12.15352926       0.15398850      -0.29422362      -0.09030296       2.62399229       0.63624369      -3.09392080
I        0.71786440      18.15861322      15.88976605       0.06970623      -0.59369959      -0.16574233      -1.34253883      -0.56504327      -1.14037950
I        6.25933824      24.09416858      14.12507518      -0.20188370      -0.11610097      -0.17805182      -0.18174376      -2.29721887       0.03895653
I        0.48485710       0.37489164      13.27107141       0.08286270      -0.31079223       0.00348455       2.22969839      -1.31501911      -0.80759977
I        5.79260213      24.17843235       9.59972951      -0.00100957      -0.40038763       0.53767836       1.66450714      -2.81105273       1.21570192
I        0.64861762      -0.39761625       9.33633735       0.16702035      -0.09760322       0.16476088       2.57274226      -0.47593905      -1.61967793
I        4.74459421      27.36262181      16.12513570      -0.33123300      -0.05461463       0.01669942       1.84026997       0.48593110      -0.24261974
I        1.96344796      25.38258599      12.11999850      -0.01583247      -0.05338721      -0.06243721       0.54664007       1.04861352       1.43950421
I       12.61614170      16.63412157      10.20578782      -0.07094053       0.14478097       0.17116572      -0.43317348      -1.82983204       0.69357389
I       10.10278382      21.27754656       9.74591420      -0.28367567      -0.10373452      -0.04026165      -1.07776599      -1.38534490      -2.23102073
I       12.55670709      16.59809010      14.38667846       0.05944604       0.17003175      -0.15994130      -1.27255807      -1.90372725      -0.48717227
I        9.82490152      21.68358686      14.30810892      -0.01222683      -0.12231129      -0.04704940       2.60572196      -2.76044953       0.43923575
I       13.82707231      20.07863661      12.14314940      -0.03856744      -0.16520819       0.04803866      -0.72799359       1.29825097       0.61447665
I        8.52932156      17.95813705      16.43164659      -0.03670182       0.02857295      -0.10204884       1.09285300       0.01645770       0.15373714
I       13.78274108      24.18117785      13.87703665       0.12102594       0.22347223       0.51205611       0.33896542      -1.69194432       0.91343576
I        8.23669059      -0.09834012      13.74950701       0.08180668      -0.21455189      -0.24046591      -1.79565897      -2.50043569      -1.93306519
I       13.91170235      23.84664149       9.66120466      -0.04803174      -0.01976320       0.11118668      -0.01134987      -1.17342493      -1.05570618
I        8.36437211      -0.65737776       9.46020707      -0.08754083       0.05727723       0.14714387       1.30449168       3.02717367      -0.41967159
I       12.44537605      27.38390382      16.41747891       0.13330715      -0.47499777      -0.11373017      -1.06271969      -0.52205041      -1.43612455
I        9.99409090      25.24801735      11.67731067       0.03270024       0.05381936       0.11321172       1.10460606      -3.81251439      -1.71851914
Cs      16.96133319       3.56999821       3.53260746       0.16074325      -0.21434859       0.01079642      -1.37725663      -1.00754938      -0.84019738
Cs      21.26342259       6.10489565       7.85522533      -0.03814184      -0.09773672      -0.06666392      -0.80291813      -0.25798907      -1.45110027
Cs      17.28003987      10.42287902      16.29529857      -0.05672278      -0.01960259      -0.05721072      -0.38093158      -1.20675002      -2.69562016
Cs      21.14491653      13.20773096       3.24021674       0.12137461       0.03762977       0.04508685       0.41411141      -3.63309426      -1.05996825
Cs      25.17312531       3.20188010       3.33661132      -0.11502418       0.04079755      -0.01109523       0.92471615       2.65754480      -1.08655712
Cs      28.85352568       6.08360868       7.24600160       0.14020378      -0.15697907       0.04228547      -1.41369961       2.64060046      -1.14499244
Cs      25.44915491      10.33471975      15.82366165      -0.22397845      -0.02251242       0.02900206       1.31321490       3.38785880       0.37173775
Cs      28.55809192      13.01558252       3.65384564       0.27931240       0.26027677      -0.17009737       2.11860293      -1.28690771      -1.15687157
Pb      18.57851660      15.47657683       7.72004333      -0.26042090       0.03176021       0.26648180       1.50785119      -1.42401432      -3.98307600
Pb      22.49069201      15.73035208       7.65496137       0.37700672      -0.32208125       0.19523061      -0.07724293       2.55736083       0.00287024
Pb      20.06753563       8.18607160       3.65808365      -0.13825752      -0.03698198      -0.30924988      -2.56155919      -4.00525753       1.39541566
Pb      16.00608619       8.37482298       3.18679300       0.11423375       0.19213678       0.24348623      -1.00236192      -1.05768548      -1.78339533
Pb      26.45314814      15.23938223       7.83300455      -0.00560954       0.31934408      -0.13923812       2.51079969       0.70083014      -4.38986421
Pb      30.35977092      15.46160478       7.61445511       0.21645580      -0.08834404      -0.10445798      -0.78730708       1.09396617      -1.82951818
Pb      27.84170528       8.39111312       3.14694315      -0.01760424      -0.03453088      -0.19367542       0.25901525       0.78508529      -2.23329639
Pb      23.89975835       8.06971693       3.02070359      -0.05981806       0.02091175       0.31489047       0.54191327      -0.79882147      -3.14491770
I       20.29839702       2.20939664       1.69786820       0.01300670      -0.09302505      -0.33040048      -1.57540913      -1.77397598      -0.07249578
I       18.22567807       7.09815187       1.17559740      -0.13845937      -0.08511722       0.02027542       1.38375559      -1.25115320       0.54587128
I       20.47022166       1.96610960       5.46200951      -0.11014322       0.24949104      -0.09407316       0.54940375       0.47908958      -0.21886492
I       17.80220424       7.16754211       5.71353142       0.03456945      -0.11440342       0.06448089       0.56769118      -0.16139369      -0.25864241
I       21.93669013       5.51626129       3.56910515       0.06591822      -0.04849624      -0.08504702       1.57399943       1.16525009      -0.20437976
I       16.47565738       3.43610784       7.18203230      -0.41515164       0.22973123       0.06851939      -0.42380822      -1.55264305      -0.90520883
I       22.21320230       9.24403294       5.58642350       0.07148113       0.22528799       0.23639927       0.89375936      -0.63941850      -0.54095124
I       16.35252079      14.13488711       5.69402532       0.27155915       0.10330926       0.11860608       0.07558971      -0.40492216       3.25907939
I       21.85099077       9.51788874       1.19784014       0.04308798      -0.10160357       0.03621303      -0.03396759       0.12214860      -1.42294047
I       16.79382669      14.22136786       1.88873032       0.10843099      -0.03711824      -0.07443785      -0.48363346       0.88491175      -1.71729877
I       20.70808549      12.99870177       7.47200086      -0.25580762       0.22775842      -0.02824696      -0.70491910       0.32058856       1.40132097
I       18.37723159      10.83589186       3.57560296      -0.33224651       0.01103101       0.00927119      -0.77530663       1.17394322       1.60796724
I       28.26258029       2.22004479       1.11616008      -0.00271982       0.02655486       0.27535517       2.28129630       3.77314081      -3.75119967
I       25.91955397       7.04939674       0.86118592       0.03088638      -0.03959316      -0.13848366      -3.48915292       1.33353965      -0.88212874