320
Lattice="25.121854697261806 -0.05977452525107978 -0.12957468506993428 0.07192418218408468 24.82535238426277 -0.21579304325525844 0.12447059888337542 -0.778188195725328 24.81728374174729" Properties=species:S:1:pos:R:3:forces:R:3:momenta:R:3 pbc="T T T"
Cs       9.65416962      14.80127935       6.16868613      -0.06527557      -0.09686322      -0.03032669      -0.59522615      -1.18437888       1.62446541
Cs       3.17297354       8.87179312       5.31777461       0.00205901       0.09321050       0.14153552      -0.39965430       1.64614500      -0.68851582
Cs       3.44287055       9.39588602      11.79559522      -0.03080291       0.00444803      -0.04525841      -0.10010066       0.43465376      -1.22608265
Cs       9.25716158      14.45867343      13.13678816       0.18061711       0.06999702      -0.02635555       1.94176655       1.63506758      -1.99647932
Cs       9.78306397       7.83510803      12.52416449      -0.02803462       0.03581299      -0.00120263       0.71594265      -1.75284113       2.75161525
Cs       3.17826921      15.21336802      11.38046455       0.08627851       0.14528268       0.06552682      -0.28522259      -0.73711912       1.94011723
Cs       3.31126563      15.66264321       5.64045450      -0.07718254       0.08754724      -0.22889319       0.18192900      -1.17417007       1.13126074
Cs       9.50618086       8.77218794       6.64573554       0.03149042      -0.16522280      -0.08423661      -0.25744177      -0.69054186       0.12883828
Pb       0.21438596       5.78024735       9.26715826       0.11346909      -0.03801019      -0.12453281      -0.83173770      -0.54500582       0.77980761
Pb       6.42642350      11.97637898       9.05218963      -0.16644083      -0.22102501       0.01555024       3.40205345      -0.71592031      -0.77705305
Pb      25.14531266      12.03428697       8.97330198       0.24282979      -0.17837229       0.28448439       1.60946098      -0.92718225      -0.69368726
Pb       6.54939004       5.68267621       8.98100005      -0.12901235       0.32575758       0.12798179       2.33020388      -2.02609183      -1.85565848
Pb       0.03292226       5.66740274       2.98812410      -0.16898004       0.11477539      -0.13616667      -2.88788604      -0.90595018      -3.15916903
Pb       6.39075027      11.95147384       2.82535434      -0.13954193       0.02851511       0.17626056      -3.40376548       1.46625378       0.34602555
Pb       0.14852365      11.74538586       2.86560372       0.08679194       0.10682218      -0.08656698       2.76579557       0.85646478      -1.58146114
Pb       6.28197430       5.85254270       2.74366839       0.15916952      -0.10175071       0.30665511      -0.21227028      -1.72899594      -1.94150645
I       24.75557973       8.80524423       9.62799997       0.00355765      -0.06821078       0.00516677      -1.01360975       0.73719999       0.83845999
I        5.58211254      15.09373577       8.34724285       0.27402788      -0.06267435       0.06535603       1.99446231      -1.97942709       0.86079386
I       13.37713694      14.91380933       8.14748712      -0.12636696       0.42435152       0.12806496       2.30359899      -1.26489224       0.93103760
I        7.26160966       8.89447781       9.92198689      -0.18219453      -0.05317422      -0.18978234       0.06649158       2.19941289       0.14533012
I        9.50979728      12.93601899       9.58149382      -0.11011476      -0.04988950      -0.09084042       2.76056194       0.83685937      -1.66432031
I        3.42606619      18.72639071       9.40056759       0.02991286      -0.05947720       0.01839325       2.80940297      -0.02007840      -2.09456895
I        3.14327529      11.43700274       8.54823349       0.31600737      -0.03167044       0.02720063      -1.00584360       2.34645165      -0.00480688
I        9.72540457       5.35098685       8.64107273      -0.27557473      -0.06862061      -0.04811359      -0.35846639       1.61746365      -2.34654382
I       12.23550742      14.96914660       3.24248409      -0.00460806      -0.07782511       0.13305482       0.63869428       0.03994866      -0.40416501
I        5.98457215       8.85326241       2.12179242      -0.07573376       0.06443588      -0.00514457       0.64799268      -1.69100361      -0.31855623
I        0.90049316       8.34620553      14.47158637      -0.10953375       0.17961112       0.06960908       0.01628823       0.03604838      -3.30605561
I        6.71764833      14.65461020      15.96834079       0.06492047       0.12374855      -0.00119173      -0.68805815      -0.28117959       0.81844224
I        3.27623003      11.91200634      16.14058076       0.20485992      -0.00889035      -0.14953435      -3.02235261      -0.54630825       0.44702381
I        9.53226519       5.84551226      15.80186785      -0.14536050      -0.03027473       0.06287753       0.59740117      -2.70901821       1.30654482
I        9.55934760      11.24705554       2.49986106      -0.14550163       0.11272796      -0.01913186       0.32859212      -0.42754076      -0.94566339
I        3.15764198      17.92863879       2.31405459       0.19633140      -0.15170113      -0.02027973       1.49539881      -2.09001537       0.77813041
I       24.54431245      17.29426779      11.95299053       0.06612316      -0.19441381       0.05005108      -0.59189229      -0.16197402      -1.92228486
I        5.93155379      12.47876657      12.22473703      -0.07530546       0.06881794       0.03682081       0.00787784       0.53511960      -0.46129939
I       12.89917346       6.31709718       5.92934120       0.08491057       0.02064287       0.14652737      -0.68079846      -0.36159780       0.33393981
I        6.77613691      11.28648769       6.01133870       0.04646660       0.05902310      -0.10023424       1.37462314      -0.06679614       1.44046693
I       24.84406510      11.28470650       5.94185268      -0.10752088      -0.04490649      -0.06743165       0.18225653      -1.47254829       0.45291526
I        6.01468574      18.85902582       5.97807311       0.05023253      -0.00690325      -0.37832339      -0.28473996      -0.12536825      -1.11842450
I       13.30420086      12.57011031      12.28343307      -0.13758611      -0.16296568      -0.20664839      -3.34024367      -1.46330320      -0.43793392
I        6.82789509       5.02659276      12.12423404       0.06061612      -0.19268577       0.17907902      -1.15906010       1.82738598      -0.27262457
Cs       9.71640492      14.41218525      18.57732800      -0.06527557      -0.09686322      -0.03032669      -0.59522615      -1.18437888       1.62446541
Cs       3.23520884       8.48269902      17.72641648       0.00205901       0.09321050       0.14153552      -0.39965430       1.64614500      -0.68851582
Cs       3.50510585       9.00679192      24.20423709      -0.03080291       0.00444803      -0.04525841      -0.10010066       0.43465376      -1.22608265
Cs       9.19492628      14.84776753       0.72814629       0.18061711       0.06999702      -0.02635555       1.94176655       1.63506758      -1.99647932
Cs       9.72082867       8.22420213       0.11552262      -0.02803462       0.03581299      -0.00120263       0.71594265      -1.75284113       2.75161525
Cs       3.24050451      14.82427392      23.78910642       0.08627851       0.14528268       0.06552682      -0.28522259      -0.73711912       1.94011723
Cs       3.37350093      15.27354911      18.04909637      -0.07718254       0.08754724      -0.22889319       0.18192900      -1.17417007       1.13126074
Cs       9.56841616       8.38309384      19.05437741       0.03149042      -0.16522280      -0.08423661      -0.25744177      -0.69054186       0.12883828
Pb       0.27662126       5.39115325      21.67580013       0.11346909      -0.03801019      -0.12453281      -0.83173770      -0.54500582       0.77980761
Pb       6.48865880      11.58728488      21.46083150      -0.16644083      -0.22102501       0.01555024       3.40205345      -0.71592031      -0.77705305
Pb      25.20754796      11.64519288      21.38194386       0.24282979      -0.17837229       0.28448439       1.60946098      -0.92718225      -0.69368726
Pb       6.61162534       5.29358211      21.38964192      -0.12901235       0.32575758       0.12798179       2.33020388      -2.02609183      -1.85565848
Pb       0.09515756       5.27830864      15.39676597      -0.16898004       0.11477539      -0.13616667      -2.88788604      -0.90595018      -3.15916903
Pb       6.45298557      11.56237974      15.23399621      -0.13954193       0.02851511       0.17626056      -3.40376548       1.46625378       0.34602555
Pb       0.21075895      11.35629176      15.27424559       0.08679194       0.10682218      -0.08656698       2.76579557       0.85646478      -1.58146114
Pb       6.34420960       5.46344860      15.15231026       0.15916952      -0.10175071       0.30665511      -0.21227028      -1.72899594      -1.94150645
I       24.81781503       8.41615014      22.03664185       0.00355765      -0.06821078       0.00516677      -1.01360975       0.73719999       0.83845999
I        5.64434784      14.70464167      20.75588472       0.27402788      -0.06267435       0.06535603       1.99446231      -1.97942709       0.86079386
I       13.43937224      14.52471523      20.55612899      -0.12636696       0.42435152       0.12806496       2.30359899      -1.26489224       0.93103760
I        7.32384496       8.50538371      22.33062876      -0.18219453      -0.05317422      -0.18978234       0.06649158       2.19941289       0.14533012
I        9.57203258      12.54692489      21.99013569      -0.11011476      -0.04988950      -0.09084042       2.76056194       0.83685937      -1.66432031
I        3.48830149      18.33729661      21.80920946       0.02991286      -0.05947720       0.01839325       2.80940297      -0.02007840      -2.09456895
I        3.20551059      11.04790864      20.95687536       0.31600737      -0.03167044       0.02720063      -1.00584360       2.34645165      -0.00480688
I        9.78763987       4.96189275      21.04971460      -0.27557473      -0.06862061      -0.04811359      -0.35846639       1.61746365      -2.34654382
I       12.29774272      14.58005250      15.65112596      -0.00460806      -0.07782511       0.13305482       0.63869428       0.03994866      -0.40416501
I        6.04680745       8.46416831      14.53043429      -0.07573376       0.06443588      -0.00514457       0.64799268      -1.69100361      -0.31855623
I        0.83825786       8.73529963       2.06294450      -0.10953375       0.17961112       0.06960908       0.01628823       0.03604838      -3.30605561
I        6.65541303      15.04370430       3.55969892       0.06492047       0.12374855      -0.00119173      -0.68805815      -0.28117959       0.81844224
I        3.21399473      12.30110044       3.73193889       0.20485992      -0.00889035      -0.14953435      -3.02235261      -0.54630825       0.44702381
I        9.47002989       6.23460636       3.39322598      -0.14536050      -0.03027473       0.06287753       0.59740117      -2.70901821       1.30654482
I        9.62158290      10.85796144      14.90850293      -0.14550163       0.11272796      -0.01913186       0.32859212      -0.42754076      -0.94566339
I        3.21987728      17.53954469      14.72269646       0.19633140      -0.15170113      -0.02027973       1.49539881      -2.09001537       0.77813041
I       24.60654775      16.90517370      24.36163241       0.06612316      -0.19441381       0.05005108      -0.59189229      -0.16197402      -1.92228486
I        5.99378909      12.08967247      24.63337890      -0.07530546       0.06881794       0.03682081       0.00787784       0.53511960      -0.46129939
I       12.96140876       5.92800308      18.33798307       0.08491057       0.02064287       0.14652737      -0.68079846      -0.36159780       0.33393981
I        6.83837221      10.89739359      18.41998057       0.04646660       0.05902310      -0.10023424       1.37462314      -0.06679614       1.44046693
I       24.90630040      10.89561241      18.35049456      -0.10752088      -0.04490649      -0.06743165       0.18225653      -1.47254829       0.45291526
I        6.07692104      18.46993172      18.38671498       0.05023253      -0.00690325      -0.37832339      -0.28473996      -0.12536825      -1.11842450
I       13.24196556      12.95920441      -0.12520880      -0.13758611      -0.16296568      -0.20664839      -3.34024367      -1.46330320      -0.43793392
I        6.89013039       4.63749866      24.53287591       0.06061612      -0.19268577       0.17907902      -1.15906010       1.82738598      -0.27262457
Cs       9.61820753       2.38860316       6.27658265      -0.06527557      -0.09686322      -0.03032669      -0.59522615      -1.18437888       1.62446541
Cs       3.20893563      21.28446931       5.20987809       0.00205901       0.09321050       0.14153552      -0.39965430       1.64614500      -0.68851582
Cs       3.47883264      21.80856221      11.68769870      -0.03080291       0.00444803      -0.04525841      -0.10010066       0.43465376      -1.22608265
Cs       9.22119949       2.04599724      13.24468468       0.18061711       0.06999702      -0.02635555       1.94176655       1.63506758      -1.99647932
Cs       9.81902606      20.24778422      12.41626797      -0.02803462       0.03581299      -0.00120263       0.71594265      -1.75284113       2.75161525
Cs       3.14230712       2.80069183      11.48836107       0.08627851       0.14528268       0.06552682      -0.28522259      -0.73711912       1.94011723
Cs       3.27530354       3.24996702       5.74835102      -0.07718254       0.08754724      -0.22889319       0.18192900      -1.17417007       1.13126074
Cs       9.54214295      21.18486413       6.53783902       0.03149042      -0.16522280      -0.08423661      -0.25744177      -0.69054186       0.12883828
Pb       0.25034805      18.19292354       9.15926174       0.11346909      -0.03801019      -0.12453281      -0.83173770      -0.54500582       0.77980761
Pb       6.46238559      24.38905517       8.94429311      -0.16644083      -0.22102501       0.01555024       3.40205345      -0.71592031      -0.77705305
Pb      25.18127475      24.44696317       8.86540546       0.24282979      -0.17837229       0.28448439       1.60946098      -0.92718225      -0.69368726
Pb       6.58535213      18.09535240       8.87310353      -0.12901235       0.32575758       0.12798179       2.33020388      -2.02609183      -1.85565848
Pb       0.06888435      18.08007893       2.88022758      -0.16898004       0.11477539      -0.13616667      -2.88788604      -0.90595018      -3.15916903
Pb       6.42671236      24.36415003       2.71745782      -0.13954193       0.02851511       0.17626056      -3.40376548       1.46625378       0.34602555
Pb       0.18448574      24.15806205       2.75770720       0.08679194       0.10682218      -0.08656698       2.76579557       0.85646478      -1.58146114
Pb       6.31793639      18.26521889       2.63577187       0.15916952      -0.10175071       0.30665511      -0.21227028      -1.72899594      -1.94150645
I       24.79154182      21.21792043       9.52010345       0.00355765      -0.06821078       0.00516677      -1.01360975       0.73719999       0.83845999
I        5.54615045       2.68105958       8.45513937       0.27402788      -0.06267435       0.06535603       1.99446231      -1.97942709       0.86079386
I       13.34117485       2.50113314       8.25538364      -0.12636696       0.42435152       0.12806496       2.30359899      -1.26489224       0.93103760
I        7.29757175      21.30715400       9.81409037      -0.18219453      -0.05317422      -0.18978234       0.06649158       2.19941289       0.14533012
I        9.47383519       0.52334280       9.68939034      -0.11011476      -0.04988950      -0.09084042       2.76056194       0.83685937      -1.66432031
I        3.39010410       6.31371452       9.50846411       0.02991286      -0.05947720       0.01839325       2.80940297      -0.02007840      -2.09456895
I        3.17923738      23.84967893       8.44033697       0.31600737      -0.03167044       0.02720063      -1.00584360       2.34645165      -0.00480688
I        9.76136666      17.76366304       8.53317621      -0.27557473      -0.06862061      -0.04811359      -0.35846639       1.61746365      -2.34654382
I       12.19954533       2.55647041       3.35038061      -0.00460806      -0.07782511       0.13305482       0.63869428       0.03994866      -0.40416501
I        6.02053424      21.26593860       2.01389590      -0.07573376       0.06443588      -0.00514457       0.64799268      -1.69100361      -0.31855623
I        0.93645525      20.75888172      14.36368985      -0.10953375       0.17961112       0.06960908       0.01628823       0.03604838      -3.30605561
I        6.68168624       2.24193401      16.07623731       0.06492047       0.12374855      -0.00119173      -0.68805815      -0.28117959       0.81844224
I        3.24026794      -0.50066985      16.24847728       0.20485992      -0.00889035      -0.14953435      -3.02235261      -0.54630825       0.44702381
I        9.56822728      18.25818845      15.69397133      -0.14536050      -0.03027473       0.06287753       0.59740117      -2.70901821       1.30654482
I        9.59530969      23.65973173       2.39196454      -0.14550163       0.11272796      -0.01913186       0.32859212      -0.42754076      -0.94566339
I        3.12167989       5.51596260       2.42195111       0.19633140      -0.15170113      -0.02027973       1.49539881      -2.09001537       0.77813041
I       24.50835036       4.88159160      12.06088706       0.06612316      -0.19441381       0.05005108      -0.59189229      -0.16197402      -1.92228486
I        5.89559170       0.06609038      12.33263355      -0.07530546       0.06881794       0.03682081       0.00787784       0.53511960      -0.46129939
I       12.93513555      18.72977337       5.82144468       0.08491057       0.02064287       0.14652737      -0.68079846      -0.36159780       0.33393981
I        6.81209900      23.69916388       5.90344218       0.04646660       0.05902310      -0.10023424       1.37462314      -0.06679614       1.44046693
I       24.88002719      23.69738270       5.83395616      -0.10752088      -0.04490649      -0.06743165       0.18225653      -1.47254829       0.45291526
I        5.97872365       6.44634963       6.08596963       0.05023253      -0.00690325      -0.37832339      -0.28473996      -0.12536825      -1.11842450
I       13.26823877       0.15743412      12.39132959      -0.13758611      -0.16296568      -0.20664839      -3.34024367      -1.46330320      -0.43793392
I        6.86385718      17.43926895      12.01633752       0.06061612      -0.19268577       0.17907902      -1.15906010       1.82738598      -0.27262457
Cs       9.68044283       1.99950906      18.68522452      -0.06527557      -0.09686322      -0.03032669      -0.59522615      -1.18437888       1.62446541
Cs       3.27117093      20.89537521      17.61851996       0.00205901       0.09321050       0.14153552      -0.39965430       1.64614500      -0.68851582
Cs       3.54106794      21.41946811      24.09634057      -0.03080291       0.00444803      -0.04525841      -0.10010066       0.43465376      -1.22608265
Cs       9.15896419       2.43509134       0.83604281       0.18061711       0.06999702      -0.02635555       1.94176655       1.63506758      -1.99647932
Cs       9.75679076      20.63687832       0.00762610      -0.02803462       0.03581299      -0.00120263       0.71594265      -1.75284113       2.75161525
Cs       3.20454242       2.41159773      23.89700294       0.08627851       0.14528268       0.06552682      -0.28522259      -0.73711912       1.94011723
Cs       3.33753884       2.86087292      18.15699289      -0.07718254       0.08754724      -0.22889319       0.18192900      -1.17417007       1.13126074
Cs       9.60437825      20.79577003      18.94648089       0.03149042      -0.16522280      -0.08423661      -0.25744177      -0.69054186       0.12883828
Pb       0.31258335      17.80382944      21.56790361       0.11346909      -0.03801019      -0.12453281      -0.83173770      -0.54500582       0.77980761
Pb       6.52462089      23.99996107      21.35293498      -0.16644083      -0.22102501       0.01555024       3.40205345      -0.71592031      -0.77705305
Pb      25.24351005      24.05786907      21.27404733       0.24282979      -0.17837229       0.28448439       1.60946098      -0.92718225      -0.69368726
Pb       6.64758743      17.70625830      21.28174540      -0.12901235       0.32575758       0.12798179       2.33020388      -2.02609183      -1.85565848
Pb       0.13111965      17.69098483      15.28886945      -0.16898004       0.11477539      -0.13616667      -2.88788604      -0.90595018      -3.15916903
Pb       6.48894766      23.97505593      15.12609969      -0.13954193       0.02851511       0.17626056      -3.40376548       1.46625378       0.34602555
Pb       0.24672104      23.76896795      15.16634907       0.08679194       0.10682218      -0.08656698       2.76579557       0.85646478      -1.58146114
Pb       6.38017169      17.87612479      15.04441374       0.15916952      -0.10175071       0.30665511      -0.21227028      -1.72899594      -1.94150645
I       24.85377712      20.82882633      21.92874532       0.00355765      -0.06821078       0.00516677      -1.01360975       0.73719999       0.83845999
I        5.60838575       2.29196548      20.86378124       0.27402788      -0.06267435       0.06535603       1.99446231      -1.97942709       0.86079386
I       13.40341015       2.11203904      20.66402551      -0.12636696       0.42435152       0.12806496       2.30359899      -1.26489224       0.93103760
I        7.35980705      20.91805990      22.22273224      -0.18219453      -0.05317422      -0.18978234       0.06649158       2.19941289       0.14533012
I        9.53607049       0.13424870      22.09803221      -0.11011476      -0.04988950      -0.09084042       2.76056194       0.83685937      -1.66432031
I        3.45233940       5.92462042      21.91710598       0.02991286      -0.05947720       0.01839325       2.80940297      -0.02007840      -2.09456895
I        3.24147268      23.46058483      20.84897884       0.31600737      -0.03167044       0.02720063      -1.00584360       2.34645165      -0.00480688
I        9.82360196      17.37456894      20.94181808      -0.27557473      -0.06862061      -0.04811359      -0.35846639       1.61746365      -2.34654382
I       12.26178063       2.16737631      15.75902248      -0.00460806      -0.07782511       0.13305482       0.63869428       0.03994866      -0.40416501
I        6.08276954      20.87684450      14.42253777      -0.07573376       0.06443588      -0.00514457       0.64799268      -1.69100361      -0.31855623
I        0.87421995      21.14797582       1.95504798      -0.10953375       0.17961112       0.06960908       0.01628823       0.03604838      -3.30605561
I        6.61945094       2.63102811       3.66759544       0.06492047       0.12374855      -0.00119173      -0.68805815      -0.28117959       0.81844224
I        3.17803264      -0.11157575       3.83983541       0.20485992      -0.00889035      -0.14953435      -3.02235261      -0.54630825       0.44702381
I        9.50599198      18.64728255       3.28532946      -0.14536050      -0.03027473       0.06287753       0.59740117      -2.70901821       1.30654482
I        9.65754499      23.27063763      14.80060641      -0.14550163       0.11272796      -0.01913186       0.32859212      -0.42754076      -0.94566339
I        3.18391519       5.12686850      14.83059298       0.19633140      -0.15170113      -0.02027973       1.49539881      -2.09001537       0.77813041
I       24.57058566       4.49249750      24.46952893       0.06612316      -0.19441381       0.05005108      -0.59189229      -0.16197402      -1.92228486
I        5.95782700      -0.32300372      24.74127542      -0.07530546       0.06881794       0.03682081       0.00787784       0.53511960      -0.46129939
I       12.99737085      18.34067927      18.23008655       0.08491057       0.02064287       0.14652737      -0.68079846      -0.36159780       0.33393981
I        6.87433430      23.31006978      18.31208405       0.04646660       0.05902310      -0.10023424       1.37462314      -0.06679614       1.44046693
I       24.94226249      23.30828860      18.24259803      -0.10752088      -0.04490649      -0.06743165       0.18225653      -1.47254829       0.45291526
I        6.04095895       6.05725553      18.49461150       0.05023253      -0.00690325      -0.37832339      -0.28473996      -0.12536825      -1.11842450
I       13.20600347       0.54652822      -0.01731228      -0.13758611      -0.16296568      -0.20664839      -3.34024367      -1.46330320      -0.43793392
I        6.92609248      17.05017485      24.42497939       0.06061612      -0.19268577       0.17907902      -1.15906010       1.82738598      -0.27262457
Cs      22.21509697      14.77139209       6.10389879      -0.06527557      -0.09686322      -0.03032669      -0.59522615      -1.18437888       1.62446541
Cs      15.73390089       8.84190586       5.25298727       0.00205901       0.09321050       0.14153552      -0.39965430       1.64614500      -0.68851582
Cs      16.00379790       9.36599876      11.73080788      -0.03080291       0.00444803      -0.04525841      -0.10010066       0.43465376      -1.22608265
Cs      21.81808893      14.42878617      13.07200082       0.18061711       0.06999702      -0.02635555       1.94176655       1.63506758      -1.99647932
Cs      22.34399132       7.80522077      12.45937715      -0.02803462       0.03581299      -0.00120263       0.71594265      -1.75284113       2.75161525
Cs      15.73919656      15.18348076      11.31567721       0.08627851       0.14528268       0.06552682      -0.28522259      -0.73711912       1.94011723
Cs      15.87219298      15.63275595       5.57566716      -0.07718254       0.08754724      -0.22889319       0.18192900      -1.17417007       1.13126074
Cs      22.06710821       8.74230068       6.58094820       0.03149042      -0.16522280      -0.08423661      -0.25744177      -0.69054186       0.12883828
Pb      12.77531331       5.75036009       9.20237092       0.11346909      -0.03801019      -0.12453281      -0.83173770      -0.54500582       0.77980761
Pb      18.98735085      11.94649172       8.98740229      -0.16644083      -0.22102501       0.01555024       3.40205345      -0.71592031      -0.77705305
Pb      12.58438531      12.06417424       9.03808933       0.24282979      -0.17837229       0.28448439       1.60946098      -0.92718225      -0.69368726
Pb      19.11031739       5.65278895       8.91621271      -0.12901235       0.32575758       0.12798179       2.33020388      -2.02609183      -1.85565848
Pb      12.59384961       5.63751548       2.92333676      -0.16898004       0.11477539      -0.13616667      -2.88788604      -0.90595018      -3.15916903
Pb      18.95167762      11.92158658       2.76056700      -0.13954193       0.02851511       0.17626056      -3.40376548       1.46625378       0.34602555
Pb      12.70945100      11.71549860       2.80081638       0.08679194       0.10682218      -0.08656698       2.76579557       0.85646478      -1.58146114
Pb      18.84290165       5.82265544       2.67888105       0.15916952      -0.10175071       0.30665511      -0.21227028      -1.72899594      -1.94150645
I       12.19465238       8.83513150       9.69278732       0.00355765      -0.06821078       0.00516677      -1.01360975       0.73719999       0.83845999
I       18.14303989      15.06384851       8.28245551       0.27402788      -0.06267435       0.06535603       1.99446231      -1.97942709       0.86079386
I        0.81620959      14.94369659       8.21227446      -0.12636696       0.42435152       0.12806496       2.30359899      -1.26489224       0.93103760
I       19.82253701       8.86459055       9.85719955      -0.18219453      -0.05317422      -0.18978234       0.06649158       2.19941289       0.14533012
I       22.07072463      12.90613173       9.51670648      -0.11011476      -0.04988950      -0.09084042       2.76056194       0.83685937      -1.66432031
I       15.98699354      18.69650345       9.33578025       0.02991286      -0.05947720       0.01839325       2.80940297      -0.02007840      -2.09456895
I       15.70420264      11.40711548       8.48344615       0.31600737      -0.03167044       0.02720063      -1.00584360       2.34645165      -0.00480688
I       22.28633192       5.32109959       8.57628539      -0.27557473      -0.06862061      -0.04811359      -0.35846639       1.61746365      -2.34654382
I       24.79643477      14.93925934       3.17769675      -0.00460806      -0.07782511       0.13305482       0.63869428       0.03994866      -0.40416501
I       18.54549950       8.82337515       2.05700508      -0.07573376       0.06443588      -0.00514457       0.64799268      -1.69100361      -0.31855623
I       13.46142051       8.31631827      14.40679903      -0.10953375       0.17961112       0.06960908       0.01628823       0.03604838      -3.30605561
I       19.27857568      14.62472294      15.90355345       0.06492047       0.12374855      -0.00119173      -0.68805815      -0.28117959       0.81844224
I       15.83715738      11.88211908      16.07579342       0.20485992      -0.00889035      -0.14953435      -3.02235261      -0.54630825       0.44702381
I       22.09319254       5.81562500      15.73708051      -0.14536050      -0.03027473       0.06287753       0.59740117      -2.70901821       1.30654482