320
Lattice="25.121854697261806 -0.05977452525107978 -0.12957468506993428 0.07192418218408468 24.82535238426277 -0.21579304325525844 0.12447059888337542 -0.778188195725328 24.81728374174729" Properties=species:S:1:pos:R:3:forces:R:3:momenta:R:3 energy=-976.055617545437 stress="0.0 0.0 0.0 0.0 0.0 0.0 0.0 0.0 0.0" pbc="T T T"
Cs       9.46969962      15.06681037       6.05707116       0.08083917      -0.03248751       0.13158694       0.80190783       0.06436375      -1.46682213
Cs       3.39001846       9.92739864       5.35740796      -0.07571698       0.26247073      -0.17221050      -0.18047950       2.39933266       2.09926577
Cs       3.45089851      10.12762740      11.65628120      -0.21069917      -0.27473605       0.05077536       0.44814813      -1.95715267       0.84692622
Cs       9.31884807      14.72648443      12.33138960       0.25933193       0.16631072       0.09979640       0.20140873      -0.37543075       0.75573425
Cs       9.56542089       8.46259109      12.11359529       0.00289246       0.18781029      -0.03007765       1.32400826       2.36722995      -1.32452031
Cs       3.22672826      16.04680580      11.18538793      -0.01071964      -0.11931182       0.18286540       0.40876277       2.04817553      -0.19679563
Cs       2.81783074      15.99416377       5.25440754       0.29016492       0.22543176       0.01752401      -2.88085640      -1.50159472       2.66275821
Cs       9.49951337       9.19524859       6.35288666      -0.00089666      -0.08585369       0.15788332      -0.23058773      -0.14376473       2.61767829
Pb       0.00771428       6.63127717       8.79930362       0.19237467      -0.22875960       0.18320518       0.46530634      -0.70594792      -1.88667262
Pb       6.34637683      12.60633735       9.01865071       0.22718492      -0.27152102      -0.26427668      -1.65987533      -0.48552602       1.19690866
Pb       0.16609309      12.51321234       8.86214627      -0.17019825       0.16914631       0.30005826       1.71665451      -0.23169420       4.52925250
Pb       6.47655384       6.20087626       9.20366693      -0.18970537      -0.02664760      -0.17993773      -0.31524901       2.62662683      -1.84864635
Pb       0.28988762       6.55212915       2.58192011      -0.33869370      -0.18200134       0.16081603       1.39826384       0.06825656      -1.30235841
Pb       6.19753960      12.73980968       2.59832426       0.23628317      -0.06004212       0.10193714      -2.93204203       1.59570098       1.03181521
Pb       0.00188624      12.69564364       2.38335263      -0.21994700       0.56902711       0.35964699      -2.52357821       0.48763730       2.64683818
Pb       6.36012038       6.35832300       3.17898981       0.06047947       0.61554676      -0.29927135      -3.96093076       5.23759122      -1.56047432
I       24.32472943       9.35794930       9.54663368       0.06150353       0.40599787       0.10919032       1.16602032       0.83991805      -1.78051373
I        5.93029866      15.53629046       7.85017625       0.00965205       0.15745830       0.10022449       1.77160467      -0.50998746      -0.01347606
I       13.06644164      15.70345300       8.35882370       0.01458752      -0.60437793      -0.16960178       3.81402330       3.39148412       2.92238592
I        6.76072143       9.41076494       9.78980142      -0.04426594       0.11376036      -0.07296342       2.01454510       1.16871967      -0.49383635
I        9.62290827      12.44215808       9.35797619      -0.38367629       0.12571600      -0.18601542       0.22863949      -0.70855748       0.22669767
I        3.48487212      19.40390533       9.26122882      -0.24463387      -0.10630385       0.00582816       0.94959657       1.12002600       0.51610878
I        3.15977037      12.11596868       8.52904691       0.37730513      -0.03360858      -0.02195703      -1.43577075      -0.57733507      -2.15780011
I        9.43952289       5.61004804       8.19843465       0.27458885       0.10921021       0.05624584       1.44425408       0.78302726      -1.61531891
I       12.39010747      16.01643736       3.40402141      -0.21579908      -0.04264269       0.05364350      -1.38103963       0.86613039       4.36093908
I        5.87646709       9.61813596       1.96433652      -0.10480860      -0.33474197       0.15199249      -0.54581640       1.88111145      -0.17881766
I        0.39958922       9.37703961      14.33865665       0.10938934      -0.11749255      -0.03920991       2.15557179      -2.69186339       0.34954805
I        6.74501186      15.52783300      16.19910730       0.16712077      -0.30421825      -0.18853763       2.13098236       1.91200032      -0.59619717
I        3.32013297      13.25188463      16.03116589       0.49299279      -0.31853256      -0.06615198       1.52614299      -0.42895605      -0.34683654
I        9.58189914       6.70287178      15.31161874      -0.05444075      -0.00303918       0.15443153      -2.48732844      -0.09556389      -1.61548065
I        9.37861879      11.99968017       1.79415540      -0.18830439       0.27241901       0.24413337       0.01852139       0.15674643       1.04147637
I        3.17401546      18.10037425       2.06739430       0.28366476      -0.03980199      -0.07870013       2.37311883      -0.69969207      -0.41500961
I       24.52389984      17.84224431      11.67082484       0.22785979       0.11712135       0.48104963       0.65684396      -0.26629568      -2.16388786
I        6.18433016      13.40046290      12.19926909      -0.21500676      -0.01799323      -0.20253311       2.92683483      -3.54233429       0.67615370
I       13.05692705       7.00763750       5.90895090       0.14939519       0.18296832      -0.12509699      -4.47010143       0.93196653       0.80032151
I        6.60359007      11.68798683       5.66556156       0.02691241       0.21041851       0.44778742      -1.11703922      -1.87268133      -1.17243056
I       24.99294051      12.12386716       5.74754641      -0.06760900      -0.07894732      -0.32120537       0.73681221       0.85815296       1.29133395
I        5.88994959      19.46578177       5.60209459      -0.13639700       0.06607460       0.11392659       0.81635968      -1.07072242      -2.68649466
I       13.18233505      12.87242691      12.07685983       0.09836874       0.13437964      -0.04666438      -0.21354001       0.24458844       0.96522409
I        6.91306472       5.45646367      12.06565310      -0.12091087       0.07056053       0.36855451       1.91475363       0.18424239       0.34705974
Cs       9.81656526      15.34271671      18.47381608       0.06079104      -0.22905889       0.17761061      -1.22301001      -0.78903770       0.71043586
Cs       3.20264461       9.17844281      17.33611450       0.19010175       0.11823431       0.11553415       0.07257728      -0.18733727       1.39241303
Cs       3.24911143       9.45204113      24.18882806       0.05872827       0.04050883      -0.23817736      -2.70557320      -0.72150473      -0.99828213
Cs       9.24578830      15.66141879       0.55375946       0.12437083      -0.03597261      -0.06748489      -2.36771360       0.14857192       0.11025383
Cs       9.57619221       8.30716590      24.59916363      -0.00240972      -0.02355866      -0.08227224      -1.13554081      -2.45294997       1.09262008
Cs       3.38079866      15.40835963      23.54436082      -0.11371198       0.02344677       0.00253990       1.71628662       0.46064155      -0.89006842
Cs       3.00442282      16.26054613      18.01405016       0.15725090       0.13351278       0.02872789       1.51789903       0.81615830      -1.61082300
Cs       9.59404131       8.51850240      18.79591827       0.16126211       0.17290019      -0.02526732       1.03384706      -1.30441332      -2.37753897
Pb       0.15157841       6.14396364      20.96848220       0.13837892      -0.05148079       0.04950216       0.89257717      -0.46563518      -0.89813473
Pb       6.41336736      12.26042693      21.20840246       0.04387102      -0.24969487       0.18582489      -2.26796683      -1.33517190       1.30668500
Pb       0.24446435      12.11528387      21.15554532      -0.28081135       0.05437625       0.23882475      -2.61151959       1.56713381      -0.99179470
Pb       6.62214139       5.87781625      21.65800836      -0.07568881       0.07779887      -0.26290373       3.18737604       0.11201642       0.82850552
Pb      -0.20086080       6.03948427      14.79912484       0.29608383       0.08561697       0.12544173      -1.16998926       6.47483091      -2.39042562
Pb       6.48865794      12.55685939      15.42378633      -0.00041886      -0.46509335      -0.18797886      -3.57401079       0.84626304      -0.81874558
Pb       0.41824102      12.42455636      15.25925112      -0.04303537       0.15177963      -0.01940038       0.44262771      -1.01844975       1.97663576
Pb       6.39815043       6.31900165      15.23278423      -0.20651471      -0.26809065       0.05679361       0.50751953       1.05158493       2.94244593
I       24.56637546       9.03563408      21.68414068       0.06743149       0.06019299       0.13501693       1.80139386      -1.69209045      -0.25293475
I        6.17923650      15.21847332      20.49821294      -0.24415599       0.01076677      -0.17204888      -0.55071409       2.28204968       2.58310319
I       13.46692248      15.15605634      20.33256607      -0.00689488       0.37987835       0.04266273       1.43684889      -0.82981828       0.95085283
I        6.87524860       9.04639753      22.08543830       0.05020040      -0.00671831      -0.10970258      -0.73155755       1.70928850       1.39730083
I        9.47477830      13.01233852      21.93302070      -0.00636308       0.00817679      -0.08637063       1.74793271      -0.76668432       0.41533345
I        3.20979815      18.68258671      21.62351767      -0.37011814      -0.01017946      -0.10474705      -0.38832575       1.18709003      -2.65423946
I        3.18090950      11.67398298      20.79802254       0.45002963      -0.13793005      -0.10050856      -1.04279465      -1.61918841       1.96747706
I        9.66098478       5.36670610      20.46630004      -0.04054981       0.04114443       0.27977452      -0.29538843       0.62402731      -2.28163398
I       12.53484152      15.23387524      15.55154609      -0.05712867      -0.01466867      -0.08408712       0.65687786      -0.60344920       2.88292302
I        5.79020857       9.20551193      14.43110859       0.15881563       0.63694876       0.11931726      -1.40436673       0.86513687       1.42526347
I        0.48047606       9.78254077       1.90942983       0.02006297      -0.38050376       0.11474703      -2.50052040      -1.62427612       2.07703939
I        6.71434684      15.89478970       3.46904669       0.02298562      -0.32638183      -0.04842387       1.60475215       0.26433227      -1.17527941
I        3.06083895      13.30246887       2.95266863      -0.00849990      -0.21693277       0.01610983      -1.97276891      -0.82380214       0.08685961
I        9.48959338       7.38526354       2.88328546      -0.07670174      -0.16549953       0.25513134      -0.50471488       0.16614619      -1.59166597
I        9.63261749      11.68544159      14.49286998      -0.19164655      -0.01837865       0.06553738      -0.45278079       1.91700696       0.67552755
I        3.41191320      18.39638359      14.55818286      -0.31090993      -0.15374125      -0.06459085       0.69841090      -0.23713539      -0.62987601
I       24.56819547      17.64425465      24.05661943       0.10527760       0.01534406       0.18464154       1.78866601       0.02323885       0.24114896
I        5.58364187      12.55334103      24.38510347       0.17656288       0.04521290      -0.10294598      -1.73527967      -1.20198780       3.58651410
I       13.23975051       6.52777081      18.16870704      -0.07552184       0.05349989      -0.25761947      -0.18461164      -1.73570998      -0.46962210
I        7.33868898      11.39683886      18.23287083      -0.15963063       0.09607103      -0.03902470      -0.04259602       0.10260926       1.92735506
I       25.19227891      11.23979670      18.18973080      -0.18477334       0.10491196      -0.24975025      -2.87108434      -1.70753123       2.32283166
I        5.94560963      18.81672900      18.01111469      -0.00302174       0.28615302       0.09896458      -0.53237595      -0.09270968      -1.73493190
I       13.39706606      12.91894296      24.45132065       0.01052668       0.11166364       0.08786614      -1.44461587      -0.31560354      -0.62068767
I        7.05712010       5.15827045      24.60081650      -0.10907305      -0.01775689       0.38069770      -1.38633586       1.27486243      -0.72836290
Cs       9.56763098       2.26969025       6.05901307       0.12317089      -0.00140220       0.19151137      -3.03278760       0.37267342      -2.51691074
Cs       2.96254030      22.40360473       5.28480389       0.16846689      -0.18036123       0.05770397       0.55911229      -0.55958979      -1.62052369
Cs       3.17295355      22.25673054      11.36335017       0.12825104       0.12408722       0.23468636      -2.07163705      -0.28656293      -0.32265952
Cs       9.26944777       2.86797252      12.42404741       0.14094563      -0.20041008       0.15758413      -1.10580239       2.22594732      -1.58176491
Cs       9.67316512      21.07208781      12.19873069       0.05741216       0.03844458      -0.25641616       0.06795322       1.74809417      -1.73179125
Cs       3.06132982       3.49634435      11.62798342      -0.25314273      -0.00101929      -0.07018427       0.50964825       0.32551653       2.07198016
Cs       3.15588945       4.06604971       5.63817135      -0.08309081      -0.05848367       0.14698712      -0.29664157      -2.48785062       0.41219396
Cs       9.71273387      21.57189877       5.66175935      -0.15647902       0.12343862       0.07927203      -0.94826265      -0.25175471      -1.57376994
Pb       0.25743959      18.92188289       8.84079658      -0.33962927       0.15343877       0.13410819       2.77646454      -0.99405451       2.01912207
Pb       6.47885624       0.00717316       9.09219968      -0.33710204       0.21355054      -0.08032622       2.52574745      -4.41331185      -0.56799239
Pb       0.00069679       0.35050449       8.79775482      -0.07161978      -0.37088954       0.01524999      -0.25258694      -0.29384543       0.10668834
Pb       6.45078205      18.66755377       8.69507073       0.32452463       0.13054564      -0.23631963       1.94085202       1.37873318       1.71251719
Pb       0.27413959      18.87057530       2.55438209      -0.25896589       0.30992658      -0.06653996      -0.61434338       0.44891117       1.02237038
Pb       6.15874355       0.37665523       2.89510258      -0.05420234      -0.26889922      -0.16621433       0.85493999      -0.55611937       0.10827294
Pb       0.04106315       0.45609373       2.67821728      -0.01565988      -0.36078978      -0.20856353      -3.54265338      -1.87418833      -0.55135432
Pb       6.27144156      18.96923369       2.49105244       0.05405395      -0.24254300       0.10142375       2.18330961       2.00820913       1.00455065
I       24.44347239      21.97956145       9.36524830       0.09984592      -0.32812939      -0.10163371       0.69529006       2.71875155       0.46323479
I        5.75158981       3.22461344       8.35682570       0.08162245      -0.17156686      -0.00611228       1.29029688       3.13543463       0.90237485
I       13.15779714       3.09416853       7.71375024      -0.05090271       0.00885117       0.15225899       0.48539426      -2.14095641      -1.21176275
I        7.00278243      21.75607894       9.31691979       0.02603389      -0.03267722       0.06388788      -0.22854674      -2.47365423       0.90535520
I        9.49825831       0.37037465       9.61741181       0.10935004       0.08376128      -0.20216337       1.14042128      -2.51494506       2.73137706
I        3.19809161       6.63861616       9.27761002      -0.05106893       0.14778838       0.17295237      -1.79554860      -1.99633104      -2.01402134
I        3.21469419      24.33013940       8.54805052       0.05054042       0.19890470      -0.21043119       2.32105535      -1.94132283       1.00127239
I        9.73856005      18.73732641       7.88961051      -0.41811403      -0.32548534      -0.04048665      -0.77023287       0.11836732       1.73835372
I       12.06446933       3.69945928       3.21613319      -0.04106947      -0.55343227       0.07284262      -0.10300277       3.14315460      -4.07675872
I        5.71153736      21.95234086       2.13967685       0.02630054       0.44796949      -0.15181077      -1.21060580      -1.19066398       0.58977124
I        0.75184367      21.75932377      14.07262434      -0.11229665      -0.32274360       0.11459270       4.19670097      -0.35368553      -1.64688167
I        6.99928818       3.08710832      15.93499620      -0.12021427      -0.21375206      -0.16981263       1.39872707       0.15824225      -0.31592687
I        3.20564403       0.26208141      15.58977778       0.10504659       0.09227946      -0.00163312       0.52229272       1.80990362      -0.71078327
I        9.59368457      18.96229286      15.42730193       0.09219424      -0.10991959      -0.00214066       0.57179460       1.00706418       0.09687274
I        9.38816107      24.49473461       2.14758994       0.03808501       0.03374168      -0.09534025      -1.35917385       0.11435534       1.28793359
I        3.23470381       5.56405143       1.97612060       0.06155406       0.19593809       0.22286474      -0.62484220       0.46675037      -1.54077392
I       24.29350444       5.70992038      11.72925760      -0.08901207      -0.18524065      -0.13699845      -1.38824880       0.80411282       2.61724671
I        5.62589113       0.95006915      11.93257599       0.15801911      -0.22860298       0.47682354      -1.14498416       0.89820127       1.28046727
I       13.25863262      19.61514487       5.46697908       0.01777373       0.07534488      -0.24969488      -0.29355394       0.15406136      -0.70665862
I        6.88337884      24.40129745       5.67497238      -0.00582911      -0.07481309      -0.14669549      -1.92946712      -1.37788990       1.64923249
I       24.35947746      24.25959961       5.23325771       0.02663550      -0.00514637       0.33226549       3.02061287       1.43068484       0.74310434
I        5.81607016       7.40932109       6.25747253       0.06969612      -0.21625189      -0.78386593      -2.69862417       0.76351136      -0.66925385
I       13.00123721       0.64875819      11.90974684       0.01533108       0.05143285       0.07652775       0.55151797       2.08310839       2.48833364
I        7.30243470      18.07599446      11.79378096      -0.11413427      -0.20138453      -0.09683418      -1.27890556       0.02089582       0.41048917
Cs       9.59755868       2.26625732      18.59428018      -0.13217572      -0.07741506      -0.08731578      -0.80323506       1.75181538      -3.01753319
Cs       3.25445849      21.76889722      17.19477458       0.14286660      -0.03366359       0.12555890       0.24075704       2.37025557       1.74503221
Cs       3.30197072      21.66238317      23.89216232       0.11614534       0.15496305      -0.05151085      -0.30375607       1.69445585       1.45291248
Cs       9.31578925       3.15609742       0.51388084       0.14375056       0.04455403      -0.11478385       2.61170896       1.35185263       0.19055404
Cs       9.51008998      20.39140001      24.51490793       0.12642103       0.06703974      -0.10372796       2.68569926       0.61140785       0.59533788
Cs       3.34281002       3.33134701      23.28876430       0.00323820      -0.11379845       0.03654721       1.98870223       1.02592149       2.84247237
Cs       3.62158933       3.72915423      17.61397458      -0.14680682      -0.03845837       0.03105951       5.31602810      -1.87354346       1.23675944
Cs       9.72362614      20.66443728      18.51291056      -0.23748652       0.19372095       0.21651523      -1.05522080      -0.41660085      -0.37326704
Pb      -0.21844704      18.41386899      21.18954698       0.40742867      -0.10298717       0.07742488      -0.12131982      -4.49171822       1.27192613
Pb       6.42393849      -0.21020393      21.43733719      -0.07594891      -0.27209376      -0.22905839       1.47437895      -0.67123223      -3.70763220
Pb       0.17369842      -0.08006005      21.34060349       0.23170029       0.02297786       0.10616934       1.09409656      -2.30414351       1.76887852
Pb       6.13187013      18.40963789      21.21791144       0.46165776       0.04845716       0.09132935      -2.23709891      -0.15496024      -0.08304917
Pb       0.17994340      18.68888211      15.04885705      -0.08437827      -0.12524289      -0.41725734      -5.62986556       0.00195893       1.43433452
Pb       6.32449143      -0.08952831      15.16009625       0.15726574       0.08744338      -0.08593474      -0.58750200      -0.64690290      -1.29053170
Pb      -0.03927283      -0.16574884      15.23292295       0.16615003       0.16593620      -0.26207543      -1.64021053       2.14673953       3.85910839
Pb       6.59096386      18.49156104      14.86754410      -0.24997251       0.19014121      -0.00010634      -0.25801332       1.44252596       2.57628818
I       24.80916257      21.44636460      21.72401877       0.02397841       0.20063054      -0.05583590       2.12388955      -0.15895283      -1.06837335
I        5.92643123       2.73229700      20.59988141       0.05077615       0.20589675       0.03237346      -3.07980499      -0.39079417      -0.33683551
I       13.00112320       2.98361180      20.45827047       0.08246318      -0.23999818       0.06771480      -0.45879506      -1.04449622      -1.74424939
I        7.00208036      21.38658952      21.98478065      -0.08670084       0.12105913      -0.13480511      -0.47462747       0.01658926      -0.32209321
I        9.50573558       0.44519127      21.92160240      -0.06740699      -0.02296821       0.12953191      -0.09601655      -0.16819040       0.38315145
I        3.40589442       6.56880399      21.46180047      -0.10012497       0.09620304      -0.02086210      -0.65954012      -0.27300782      -2.36018409
I        3.36004081      23.95858103      20.64082040      -0.03112781      -0.08180650      -0.09012274       1.73985591      -0.21257906       2.34163725
I        9.55224627      17.90592328      21.42229424       0.11621949       0.08249165      -0.10585676       0.91107408      -0.30155834      -0.42918150
I       12.07235596       2.96094828      15.81193471      -0.08502443      -0.01842576      -0.00232592      -2.16981160      -0.03214568       0.80486548
I        6.14221111      21.55776674      14.10861167      -0.06968927       0.27505457      -0.01285246       2.11130481      -0.36088852       1.52285581
I        0.89465946      22.04476477       1.89666036      -0.19568323       0.08105689       0.08831055       1.25956350       1.50817522       1.12557832
I        6.98486427       3.41324421       3.81801722      -0.14107703      -0.05122853      -0.13017128      -0.21924483       2.08048103       2.13689908
I        3.07262257       0.63390216       3.55872587       0.30387572       0.28507611       0.06759531       4.51814142      -1.29003741      -0.86755856
I        9.58797887      19.13072458       2.83280506      -0.05479087      -0.09147307      -0.07461542      -0.29283404      -0.15549383       0.84187616
I        9.60422571      24.29931037      14.09410166      -0.05407392       0.11544308       0.05876918      -0.28362932       0.46612525      -2.01037109
I        3.15929465       6.13893133      14.56926694       0.24554061      -0.04816282       0.00677178       0.65309558       1.93452792      -0.12627741
I       24.79906384       5.60669499      24.11395245       0.09356714      -0.16092394       0.25819800      -0.55147136       1.50380236      -1.65422223
I        5.64688694       0.31758805      24.52906888       0.10356765      -0.00566512      -0.00123407      -0.84931767      -0.56293526       1.76440898
I       13.20749186      19.02070226      17.75673963      -0.05498756      -0.08434333       0.35769348       1.71252088      -0.45237561      -1.26279542
I        7.06296242      23.76325056      17.88288164       0.00810044       0.02826680       0.34555284      -1.37345178      -1.27873440       1.62045412
I       24.71795720      23.95129606      17.89939634       0.15443885       0.01181040       0.03896078       0.13055632      -0.79627152       0.20016240
I        6.21249471       6.60784094      18.48503270      -0.07919361       0.11930631      -0.40358718      -1.67428191       0.51256162      -0.92479299
I       13.50235302       0.52538152      24.29960506      -0.22458655       0.08264901      -0.21163231       0.68203358       2.29188976       2.67451064
I        6.75999345      17.15596826      24.21755609      -0.15191379       0.27632598       0.05612664      -1.14204853       0.77789915      -1.84842905
Cs      22.17222031      14.85724140       6.14823325       0.03031866       0.11188677       0.13382996       1.32045547       0.29465644       0.28082613
Cs      15.85563821      10.05056525       4.98352012      -0.26043700      -0.10909362       0.15513171       1.88058805      -0.47733364       2.37419231
Cs      15.98685197       9.92754727      11.41143430       0.09837863      -0.03634748       0.12060947       1.55202771       3.35806396       0.41463272
Cs      22.09510772      15.04170360      12.49488440      -0.05208303       0.18180264      -0.00026287       0.19007815      -1.74072710      -0.22614493
Cs      21.52274443       9.27781080      12.67207449       0.25544249      -0.08511493      -0.26625595       0.09821425      -0.37070320       0.81545819
Cs      15.65866432      16.13573280      11.52644287       0.05539707      -0.29892154      -0.17061837       0.71653366      -0.02491189       2.62518694
Cs      15.32446254      16.87338709       5.37331313       0.30403396      -0.24693712      -0.07122449      -3.40909993      -1.85525463      -3.58208823
Cs      22.23043849       9.26848006       5.96781276      -0.11992031       0.15171301      -0.05862903      -0.09015031       3.20384972      -0.31018516
Pb      12.70501896       5.98349036       8.74774381       0.07561611       0.36229214      -0.05976335      -1.72815795      -2.02643157      -1.07403035
Pb      19.01611559      12.53673869       8.97545792      -0.17341595       0.51081056      -0.35280674       2.08163609      -2.86251717      -0.75907095
Pb      12.78177089      12.28595226       9.01964230       0.07330716       0.08770010      -0.05941540      -0.00163339       0.43135156       0.91668220
Pb      19.18947024       6.41617833       8.63926071      -0.59047314      -0.13671849      -0.49243904       3.62822072      -0.66857918       2.60689821
Pb      12.73633355       6.66148668       2.64554893       0.05463343       0.08427985       0.04655857       0.54224050       3.67302058      -2.90457905
Pb      18.78558919      12.99040940       2.75144764      -0.20537788      -0.17879211      -0.08842330      -5.06933270       2.42936643      -1.64148090
Pb      12.37870641      12.80238035       2.75482980       0.12808605       0.04598102       0.04663657       0.95729992      -2.37852928       0.53486306
Pb      19.06309440       6.54388069       2.65172830      -0.21267736      -0.10536830      -0.04436564      -2.95939266      -0.56684649       0.01873540
I       12.57942097       9.23815258       9.82505643      -0.10813075      -0.06353790      -0.21430746      -0.76975639      -0.76349341       1.66289745
I       18.18034571      15.58570056       7.94110370       0.08371551       0.06966073       0.06581260      -2.40986188       1.26420984      -0.61901084
I        1.04032020      15.75398742       8.37706491      -0.31238289      -0.25101724       0.12055956      -0.82247998       0.15864555      -0.95198551
I       19.35400297       9.40863320       9.21773201       0.16636004      -0.03424998       0.17388992       0.43748763      -1.24574493      -0.65444699
I       22.17949251      13.05973295       9.38222793      -0.10972977      -0.06903609      -0.00357619       1.05187672      -1.23102217       1.89826368
I       15.92543991      19.25405894       9.05646090      -0.12311858       0.08043888       0.08425237      -2.69635927      -0.41004821       1.22489706
I       15.84296968      12.09051430       8.38346132       0.15720762      -0.01722684      -0.06380064       0.67573583      -1.53640609       0.63444657
I       22.10143423       6.13417661       7.84885767      -0.08961140      -0.18557094      -0.06354656       0.99461735      -1.10885125      -1.38250707
I       24.27351111      15.89105194       3.16646336       0.19127676      -0.33803541      -0.07962814      -1.14893182      -2.68329117      -1.92908563
I       18.76609677       9.73711244       2.00866562      -0.10033627       0.21897485      -0.00376551      -1.98937922       1.67603081       0.37198271
I       13.28865451       8.91503180      13.87543352       0.04196887       0.15079625       0.25858448       2.19563013      -1.08690145       1.50032508
I       19.37986692      15.54399641      15.53978011       0.15660962       0.17429323       0.27134878      -1.91140029       2.59456154      -1.90764429
I       16.04610109      12.46964194      15.38147415      -0.25421669       0.15468927       0.03076588       0.38070714      -2.33024550      -0.86626459
I       22.06465472       6.47253428      15.32487804      -0.64519379      -0.08403928      -0.02359744      -1.32169240      -2.89192531       0.15138663