320
Lattice="31.392636507215773 -0.04481615214523286 0.09492011689125937 0.1392903615087138 28.887165468702893 0.25788863917263216 -0.2799812260619887 -0.14238296324623026 16.953981605175922" Properties=species:S:1:pos:R:3:forces:R:3:momenta:R:3 pbc="T T T"
Cs       1.46137650       4.07763486       4.10591897      -0.08142008      -0.06218388      -0.00344179      -0.22921549      -0.44989088       4.06872186
Cs       5.45784324       6.61396007       8.59356748      -0.06736254       0.03552543      -0.09065675       0.45708885      -0.47595607      -0.75233547
Cs       1.30020703      11.43312637      16.99364259       0.03338978       0.00446825      -0.01025654      -2.90327505       0.74055879      -1.05445034
Cs       5.34026530      14.07484352       3.94306225       0.01228576      -0.08118689       0.10091253      -0.60751248      -1.66939453      -1.18356252
Cs       9.33462357       4.44480062       4.06328852       0.14715252      -0.10348096       0.02984467      -0.34693726      -1.67853881      -1.75416967
Cs      13.34908043       6.73942028       8.53061683       0.05367240      -0.01913263      -0.04696666      -0.41591670      -0.23895287      -0.63780712
Cs       9.53386898      11.34205678       0.15739979      -0.01737848       0.01723944      -0.04523657      -1.15021212       1.11325922      -0.09657164
Cs      12.95251471      13.78343017       4.71600948       0.14583699       0.09775338      -0.13256469       0.16377874      -0.69511609      -0.79172182
Pb       2.85954871      16.04989571       8.67848557      -0.21934501      -0.12788551      -0.05103265      -0.41058220       6.10508941       2.43398678
Pb       6.73637971      16.37042476       8.21148809       0.31081315      -0.32028659       0.12899463      -0.18810951       0.06588579      -0.35347753
Pb       4.02967565       8.97385595       4.35451867       0.18195630      -0.09434743      -0.02197144       1.58515236       1.92438015      -2.96259247
Pb       0.32801990       8.90240150       3.95378788      -0.69251909       0.27245757       0.05814792      -0.41933752       1.76603400      -0.77884707
Pb      10.73234592      16.37563240       8.59146567       0.05131162      -0.03751590      -0.17218791       3.03918629       1.23521117       0.75599405
Pb      14.54317775      16.07024627       8.77798005       0.01451464      -0.02095439      -0.10743198      -1.71668752       0.00923806      -0.32541071
Pb      12.06240400       9.02735177       4.42361568      -0.01755283       0.08285237      -0.26584643       0.57924839      -2.02329201      -0.11075746
Pb       7.97410474       9.20587482       4.16606555       0.05808824      -0.52622521       0.17071770      -1.13271586      -3.61227534       0.42252706
I        5.19479412       2.96172224       2.10650264      -0.35782997       0.08821184       0.16297979      -0.76050967       1.25151466      -0.79468967
I        2.35164774       8.05636529       1.71099591      -0.02807686      -0.18235901      -0.09928008       0.89141321      -1.37545055       4.19064440
I        4.36905548       3.12656070       6.26554547       0.03490188       0.24459480      -0.27445577       0.30095989       1.24610938      -2.30217857
I        1.83413579       7.45987126       6.21929266       0.25407644      -0.20650477       0.13714112      -0.80272244       0.74381788      -0.63874285
I        6.13610475       6.37246219       4.10737216      -0.03675519       0.43813689       0.00664139       1.87468762      -0.71021496       0.80637548
I        0.76236429       4.07512679       8.71166851       0.08260949       0.37382739       0.08935608       1.43176503      -1.45580562       2.57809368
I        5.95290032      10.02821711       6.60070229       0.21435631       0.05440927       0.02976918       0.84830728       0.01351541       0.87317249
I        0.64997121      15.03484757       6.42543511       0.33403971      -0.10909949      -0.15773629       0.60721514      -1.27118344      -2.29345004
I        5.93280602      10.54355094       2.19760354       0.01339436      -0.00697223      -0.03456035      -1.60717276      -1.91864098       2.48238150
I        1.01885432      14.55099238       2.28970485      -0.04433704       0.12926366      -0.00554221       2.94499150       0.50697009       0.04778967
I        4.90626928      13.60283661       8.21838601      -0.03226499       0.02664664      -0.03678914      -1.16972122       0.30318396       1.88646543
I        2.09314006      11.48952784       4.67870191       0.24311948       0.09646392      -0.05701613       1.76231873       1.97067597       1.63502613
I       12.83833236       2.99602898       2.36404963      -0.29588369      -0.01843171       0.06823497       1.32729043       0.36980957       2.06765537
I       10.19100320       7.90018606       2.03621901      -0.15243852       0.09219626       0.05953599       0.42705204       0.45643539       2.04622402
I       12.75057763       3.25177134       6.30647696      -0.03122360      -0.07922283       0.28699645      -0.34027667      -1.59971846       0.55485206
I        9.96101803       7.49425916       6.31863854      -0.01616961       0.15348011      -0.02030160       0.55143850      -0.49253778      -1.02158346
I       13.95169058       6.35783007       3.99556231      -0.05248740       0.29819923       0.04388153       0.61377317      -1.90405453      -0.74217908
I        8.53022223       4.43550398       8.84575412       0.10668542       0.07605700      -0.11869405      -1.43333314      -1.79327840       2.24261413
I       14.20864901      10.39479959       6.37610158      -0.02043246      -0.17249704      -0.09915809      -0.00850362       2.15002233       0.30374827
I        8.95334970      15.57589743       5.93269577      -0.03292139      -0.09886778      -0.08904892      -2.07726804      -0.30788600       0.69369999
I       13.86033708      10.40979647       1.93795589      -0.03367338      -0.13968630       0.28636021      -1.29351387       1.58246968       0.33068986
I        8.72471067      14.78029937       1.81190312      -0.02491990      -0.06182911       0.15186120       0.42638841      -0.85548552      -1.07341638
I       12.42589256      13.63182756       8.33909165      -0.09469054       0.05521925       0.05777544      -0.32570336       0.69668913       0.55264198
I        9.93567611      11.63260317       4.41910941       0.05747810      -0.16833301       0.07102525       1.49130462       1.21945338       1.74772935
Cs       1.32138589       4.00644338      12.58290977      -0.08142008      -0.06218388      -0.00344179      -0.22921549      -0.44989088       4.06872186
Cs       5.59783385       6.68515155       0.11657668      -0.06736254       0.03552543      -0.09065675       0.45708885      -0.47595607      -0.75233547
Cs       1.44019765      11.50431785       8.51665178       0.03338978       0.00446825      -0.01025654      -2.90327505       0.74055879      -1.05445034
Cs       5.20027469      14.00365204      12.42005305       0.01228576      -0.08118689       0.10091253      -0.60751248      -1.66939453      -1.18356252
Cs       9.19463296       4.37360914      12.54027932       0.14715252      -0.10348096       0.02984467      -0.34693726      -1.67853881      -1.75416967
Cs      13.20908982       6.66822880      17.00760763       0.05367240      -0.01913263      -0.04696666      -0.41591670      -0.23895287      -0.63780712
Cs       9.39387837      11.27086530       8.63439059      -0.01737848       0.01723944      -0.04523657      -1.15021212       1.11325922      -0.09657164
Cs      12.81252410      13.71223869      13.19300028       0.14583699       0.09775338      -0.13256469       0.16377874      -0.69511609      -0.79172182
Pb       2.99953932      16.12108719       0.20149477      -0.21934501      -0.12788551      -0.05103265      -0.41058220       6.10508941       2.43398678
Pb       6.59638910      16.29923328      16.68847889       0.31081315      -0.32028659       0.12899463      -0.18810951       0.06588579      -0.35347753
Pb       3.88968504       8.90266447      12.83150947       0.18195630      -0.09434743      -0.02197144       1.58515236       1.92438015      -2.96259247
Pb       0.18802929       8.83121002      12.43077868      -0.69251909       0.27245757       0.05814792      -0.41933752       1.76603400      -0.77884707
Pb      10.59235531      16.30444092      17.06845647       0.05131162      -0.03751590      -0.17218791       3.03918629       1.23521117       0.75599405
Pb      14.68316836      16.14143775       0.30098925       0.01451464      -0.02095439      -0.10743198      -1.71668752       0.00923806      -0.32541071
Pb      11.92241339       8.95616029      12.90060648      -0.01755283       0.08285237      -0.26584643       0.57924839      -2.02329201      -0.11075746
Pb       7.83411413       9.13468334      12.64305635       0.05808824      -0.52622521       0.17071770      -1.13271586      -3.61227534       0.42252706
I        5.05480351       2.89053076      10.58349344      -0.35782997       0.08821184       0.16297979      -0.76050967       1.25151466      -0.79468967
I        2.21165713       7.98517381      10.18798671      -0.02807686      -0.18235901      -0.09928008       0.89141321      -1.37545055       4.19064440
I        4.22906487       3.05536922      14.74253627       0.03490188       0.24459480      -0.27445577       0.30095989       1.24610938      -2.30217857
I        1.69414518       7.38867978      14.69628346       0.25407644      -0.20650477       0.13714112      -0.80272244       0.74381788      -0.63874285
I        5.99611414       6.30127071      12.58436296      -0.03675519       0.43813689       0.00664139       1.87468762      -0.71021496       0.80637548
I        0.90235490       4.14631827       0.23467771       0.08260949       0.37382739       0.08935608       1.43176503      -1.45580562       2.57809368
I        5.81290971       9.95702563      15.07769309       0.21435631       0.05440927       0.02976918       0.84830728       0.01351541       0.87317249
I        0.50998060      14.96365609      14.90242591       0.33403971      -0.10909949      -0.15773629       0.60721514      -1.27118344      -2.29345004
I        5.79281541      10.47235946      10.67459434       0.01339436      -0.00697223      -0.03456035      -1.60717276      -1.91864098       2.48238150
I        0.87886371      14.47980090      10.76669565      -0.04433704       0.12926366      -0.00554221       2.94499150       0.50697009       0.04778967
I        4.76627867      13.53164513      16.69537681      -0.03226499       0.02664664      -0.03678914      -1.16972122       0.30318396       1.88646543
I        1.95314945      11.41833636      13.15569271       0.24311948       0.09646392      -0.05701613       1.76231873       1.97067597       1.63502613
I       12.69834175       2.92483750      10.84104043      -0.29588369      -0.01843171       0.06823497       1.32729043       0.36980957       2.06765537
I       10.05101259       7.82899458      10.51320981      -0.15243852       0.09219626       0.05953599       0.42705204       0.45643539       2.04622402
I       12.61058702       3.18057986      14.78346776      -0.03122360      -0.07922283       0.28699645      -0.34027667      -1.59971846       0.55485206
I        9.82102742       7.42306768      14.79562934      -0.01616961       0.15348011      -0.02030160       0.55143850      -0.49253778      -1.02158346
I       13.81169997       6.28663859      12.47255311      -0.05248740       0.29819923       0.04388153       0.61377317      -1.90405453      -0.74217908
I        8.67021284       4.50669546       0.36876332       0.10668542       0.07605700      -0.11869405      -1.43333314      -1.79327840       2.24261413
I       14.06865840      10.32360811      14.85309238      -0.02043246      -0.17249704      -0.09915809      -0.00850362       2.15002233       0.30374827
I        8.81335909      15.50470595      14.40968657      -0.03292139      -0.09886778      -0.08904892      -2.07726804      -0.30788600       0.69369999
I       13.72034647      10.33860499      10.41494669      -0.03367338      -0.13968630       0.28636021      -1.29351387       1.58246968       0.33068986
I        8.58472006      14.70910789      10.28889392      -0.02491990      -0.06182911       0.15186120       0.42638841      -0.85548552      -1.07341638
I       12.28590195      13.56063608      16.81608245      -0.09469054       0.05521925       0.05777544      -0.32570336       0.69668913       0.55264198
I        9.79568550      11.56141169      12.89610021       0.05747810      -0.16833301       0.07102525       1.49130462       1.21945338       1.74772935
Cs       1.53102168      18.52121759       4.23486329      -0.08142008      -0.06218388      -0.00344179      -0.22921549      -0.44989088       4.06872186
Cs       5.52748842      21.05754280       8.72251180      -0.06736254       0.03552543      -0.09065675       0.45708885      -0.47595607      -0.75233547
Cs       1.36985221      25.87670910      17.12258690       0.03338978       0.00446825      -0.01025654      -2.90327505       0.74055879      -1.05445034
Cs       5.40991048      28.51842625       4.07200657       0.01228576      -0.08118689       0.10091253      -0.60751248      -1.66939453      -1.18356252
Cs       9.40426875      18.88838335       4.19223284       0.14715252      -0.10348096       0.02984467      -0.34693726      -1.67853881      -1.75416967
Cs      13.41872561      21.18300301       8.65956115       0.05367240      -0.01913263      -0.04696666      -0.41591670      -0.23895287      -0.63780712
Cs       9.60351416      25.78563951       0.28634411      -0.01737848       0.01723944      -0.04523657      -1.15021212       1.11325922      -0.09657164
Cs      13.02215989      28.22701290       4.84495380       0.14583699       0.09775338      -0.13256469       0.16377874      -0.69511609      -0.79172182
Pb       2.78990353       1.60631298       8.54954125      -0.21934501      -0.12788551      -0.05103265      -0.41058220       6.10508941       2.43398678
Pb       6.66673453       1.92684203       8.08254377       0.31081315      -0.32028659       0.12899463      -0.18810951       0.06588579      -0.35347753
Pb       4.09932083      23.41743868       4.48346299       0.18195630      -0.09434743      -0.02197144       1.58515236       1.92438015      -2.96259247
Pb       0.39766508      23.34598423       4.08273220      -0.69251909       0.27245757       0.05814792      -0.41933752       1.76603400      -0.77884707
Pb      10.66270074       1.93204967       8.46252135       0.05131162      -0.03751590      -0.17218791       3.03918629       1.23521117       0.75599405
Pb      14.47353257       1.62666354       8.64903573       0.01451464      -0.02095439      -0.10743198      -1.71668752       0.00923806      -0.32541071
Pb      12.13204918      23.47093450       4.55256000      -0.01755283       0.08285237      -0.26584643       0.57924839      -2.02329201      -0.11075746
Pb       8.04374992      23.64945755       4.29500987       0.05808824      -0.52622521       0.17071770      -1.13271586      -3.61227534       0.42252706
I        5.26443930      17.40530497       2.23544696      -0.35782997       0.08821184       0.16297979      -0.76050967       1.25151466      -0.79468967
I        2.42129292      22.49994802       1.83994023      -0.02807686      -0.18235901      -0.09928008       0.89141321      -1.37545055       4.19064440
I        4.43870066      17.57014343       6.39448979       0.03490188       0.24459480      -0.27445577       0.30095989       1.24610938      -2.30217857
I        1.90378097      21.90345399       6.34823698       0.25407644      -0.20650477       0.13714112      -0.80272244       0.74381788      -0.63874285
I        6.20574993      20.81604492       4.23631648      -0.03675519       0.43813689       0.00664139       1.87468762      -0.71021496       0.80637548
I        0.83200947      18.51870952       8.84061283       0.08260949       0.37382739       0.08935608       1.43176503      -1.45580562       2.57809368
I        6.02254550      24.47179984       6.72964661       0.21435631       0.05440927       0.02976918       0.84830728       0.01351541       0.87317249
I        0.58032603       0.59126484       6.29649079       0.33403971      -0.10909949      -0.15773629       0.60721514      -1.27118344      -2.29345004
I        6.00245120      24.98713367       2.32654786       0.01339436      -0.00697223      -0.03456035      -1.60717276      -1.91864098       2.48238150
I        0.94920914       0.10740965       2.16076053      -0.04433704       0.12926366      -0.00554221       2.94499150       0.50697009       0.04778967
I        4.97591446      28.04641934       8.34733033      -0.03226499       0.02664664      -0.03678914      -1.16972122       0.30318396       1.88646543
I        2.16278524      25.93311057       4.80764623       0.24311948       0.09646392      -0.05701613       1.76231873       1.97067597       1.63502613
I       12.90797754      17.43961171       2.49299395      -0.29588369      -0.01843171       0.06823497       1.32729043       0.36980957       2.06765537
I       10.26064838      22.34376879       2.16516333      -0.15243852       0.09219626       0.05953599       0.42705204       0.45643539       2.04622402
I       12.82022281      17.69535407       6.43542128      -0.03122360      -0.07922283       0.28699645      -0.34027667      -1.59971846       0.55485206
I       10.03066321      21.93784189       6.44758286      -0.01616961       0.15348011      -0.02030160       0.55143850      -0.49253778      -1.02158346
I       14.02133576      20.80141280       4.12450663      -0.05248740       0.29819923       0.04388153       0.61377317      -1.90405453      -0.74217908
I        8.59986741      18.87908671       8.97469844       0.10668542       0.07605700      -0.11869405      -1.43333314      -1.79327840       2.24261413
I       14.27829419      24.83838232       6.50504590      -0.02043246      -0.17249704      -0.09915809      -0.00850362       2.15002233       0.30374827
I        8.88370452       1.13231470       5.80375145      -0.03292139      -0.09886778      -0.08904892      -2.07726804      -0.30788600       0.69369999
I       13.92998226      24.85337920       2.06690021      -0.03367338      -0.13968630       0.28636021      -1.29351387       1.58246968       0.33068986
I        8.65506549       0.33671664       1.68295880      -0.02491990      -0.06182911       0.15186120       0.42638841      -0.85548552      -1.07341638
I       12.49553774      28.07541029       8.46803597      -0.09469054       0.05521925       0.05777544      -0.32570336       0.69668913       0.55264198
I       10.00532129      26.07618590       4.54805373       0.05747810      -0.16833301       0.07102525       1.49130462       1.21945338       1.74772935
Cs       1.39103107      18.45002611      12.71185409      -0.08142008      -0.06218388      -0.00344179      -0.22921549      -0.44989088       4.06872186
Cs       5.66747903      21.12873429       0.24552100      -0.06736254       0.03552543      -0.09065675       0.45708885      -0.47595607      -0.75233547
Cs       1.50984283      25.94790058       8.64559610       0.03338978       0.00446825      -0.01025654      -2.90327505       0.74055879      -1.05445034
Cs       5.26991987      28.44723477      12.54899737       0.01228576      -0.08118689       0.10091253      -0.60751248      -1.66939453      -1.18356252
Cs       9.26427814      18.81719187      12.66922364       0.14715252      -0.10348096       0.02984467      -0.34693726      -1.67853881      -1.75416967
Cs      13.27873500      21.11181153      17.13655195       0.05367240      -0.01913263      -0.04696666      -0.41591670      -0.23895287      -0.63780712
Cs       9.46352355      25.71444803       8.76333491      -0.01737848       0.01723944      -0.04523657      -1.15021212       1.11325922      -0.09657164
Cs      12.88216928      28.15582142      13.32194460       0.14583699       0.09775338      -0.13256469       0.16377874      -0.69511609      -0.79172182
Pb       2.92989414       1.67750446       0.07255045      -0.21934501      -0.12788551      -0.05103265      -0.41058220       6.10508941       2.43398678
Pb       6.52674392       1.85565054      16.55953457       0.31081315      -0.32028659       0.12899463      -0.18810951       0.06588579      -0.35347753
Pb       3.95933022      23.34624720      12.96045379       0.18195630      -0.09434743      -0.02197144       1.58515236       1.92438015      -2.96259247
Pb       0.25767447      23.27479275      12.55972300      -0.69251909       0.27245757       0.05814792      -0.41933752       1.76603400      -0.77884707
Pb      10.52271013       1.86085818      16.93951215       0.05131162      -0.03751590      -0.17218791       3.03918629       1.23521117       0.75599405
Pb      14.61352318       1.69785502       0.17204493       0.01451464      -0.02095439      -0.10743198      -1.71668752       0.00923806      -0.32541071
Pb      11.99205857      23.39974302      13.02955080      -0.01755283       0.08285237      -0.26584643       0.57924839      -2.02329201      -0.11075746
Pb       7.90375931      23.57826607      12.77200067       0.05808824      -0.52622521       0.17071770      -1.13271586      -3.61227534       0.42252706
I        5.12444869      17.33411349      10.71243776      -0.35782997       0.08821184       0.16297979      -0.76050967       1.25151466      -0.79468967
I        2.28130231      22.42875654      10.31693103      -0.02807686      -0.18235901      -0.09928008       0.89141321      -1.37545055       4.19064440
I        4.29871005      17.49895195      14.87148059       0.03490188       0.24459480      -0.27445577       0.30095989       1.24610938      -2.30217857
I        1.76379036      21.83226251      14.82522778       0.25407644      -0.20650477       0.13714112      -0.80272244       0.74381788      -0.63874285
I        6.06575932      20.74485344      12.71330728      -0.03675519       0.43813689       0.00664139       1.87468762      -0.71021496       0.80637548
I        0.97200008      18.58990101       0.36362203       0.08260949       0.37382739       0.08935608       1.43176503      -1.45580562       2.57809368
I        5.88255489      24.40060836      15.20663741       0.21435631       0.05440927       0.02976918       0.84830728       0.01351541       0.87317249
I        0.44033542       0.52007335      14.77348159       0.33403971      -0.10909949      -0.15773629       0.60721514      -1.27118344      -2.29345004
I        5.86246059      24.91594219      10.80353866       0.01339436      -0.00697223      -0.03456035      -1.60717276      -1.91864098       2.48238150
I        0.80921853       0.03621816      10.63775133      -0.04433704       0.12926366      -0.00554221       2.94499150       0.50697009       0.04778967
I        4.83592385      27.97522786      16.82432113      -0.03226499       0.02664664      -0.03678914      -1.16972122       0.30318396       1.88646543
I        2.02279463      25.86191909      13.28463703       0.24311948       0.09646392      -0.05701613       1.76231873       1.97067597       1.63502613
I       12.76798693      17.36842023      10.96998475      -0.29588369      -0.01843171       0.06823497       1.32729043       0.36980957       2.06765537
I       10.12065777      22.27257731      10.64215413      -0.15243852       0.09219626       0.05953599       0.42705204       0.45643539       2.04622402
I       12.68023220      17.62416259      14.91241208      -0.03122360      -0.07922283       0.28699645      -0.34027667      -1.59971846       0.55485206
I        9.89067260      21.86665041      14.92457366      -0.01616961       0.15348011      -0.02030160       0.55143850      -0.49253778      -1.02158346
I       13.88134515      20.73022132      12.60149743      -0.05248740       0.29819923       0.04388153       0.61377317      -1.90405453      -0.74217908
I        8.73985802      18.95027820       0.49770764       0.10668542       0.07605700      -0.11869405      -1.43333314      -1.79327840       2.24261413
I       14.13830358      24.76719084      14.98203670      -0.02043246      -0.17249704      -0.09915809      -0.00850362       2.15002233       0.30374827
I        8.74371391       1.06112321      14.28074225      -0.03292139      -0.09886778      -0.08904892      -2.07726804      -0.30788600       0.69369999
I       13.78999165      24.78218772      10.54389101      -0.03367338      -0.13968630       0.28636021      -1.29351387       1.58246968       0.33068986
I        8.51507488       0.26552515      10.15994960      -0.02491990      -0.06182911       0.15186120       0.42638841      -0.85548552      -1.07341638
I       12.35554713      28.00421881      16.94502677      -0.09469054       0.05521925       0.05777544      -0.32570336       0.69668913       0.55264198
I        9.86533068      26.00499442      13.02504453       0.05747810      -0.16833301       0.07102525       1.49130462       1.21945338       1.74772935
Cs      17.15769475       4.05522678       4.15337903      -0.08142008      -0.06218388      -0.00344179      -0.22921549      -0.44989088       4.06872186
Cs      21.15416149       6.59155199       8.64102754      -0.06736254       0.03552543      -0.09065675       0.45708885      -0.47595607      -0.75233547
Cs      16.99652529      11.41071829      17.04110264       0.03338978       0.00446825      -0.01025654      -2.90327505       0.74055879      -1.05445034
Cs      21.03658355      14.05243544       3.99052231       0.01228576      -0.08118689       0.10091253      -0.60751248      -1.66939453      -1.18356252
Cs      25.03094182       4.42239254       4.11074858       0.14715252      -0.10348096       0.02984467      -0.34693726      -1.67853881      -1.75416967
Cs      29.04539868       6.71701220       8.57807689       0.05367240      -0.01913263      -0.04696666      -0.41591670      -0.23895287      -0.63780712
Cs      25.23018723      11.31964870       0.20485985      -0.01737848       0.01723944      -0.04523657      -1.15021212       1.11325922      -0.09657164
Cs      28.64883296      13.76102209       4.76346954       0.14583699       0.09775338      -0.13256469       0.16377874      -0.69511609      -0.79172182
Pb      18.55586696      16.02748763       8.72594563      -0.21934501      -0.12788551      -0.05103265      -0.41058220       6.10508941       2.43398678
Pb      22.43269796      16.34801668       8.25894815       0.31081315      -0.32028659       0.12899463      -0.18810951       0.06588579      -0.35347753
Pb      19.72599390       8.95144787       4.40197873       0.18195630      -0.09434743      -0.02197144       1.58515236       1.92438015      -2.96259247
Pb      16.02433815       8.87999342       4.00124794      -0.69251909       0.27245757       0.05814792      -0.41933752       1.76603400      -0.77884707
Pb      26.42866417      16.35322432       8.63892573       0.05131162      -0.03751590      -0.17218791       3.03918629       1.23521117       0.75599405
Pb      30.23949600      16.04783819       8.82544011       0.01451464      -0.02095439      -0.10743198      -1.71668752       0.00923806      -0.32541071
Pb      27.75872225       9.00494369       4.47107574      -0.01755283       0.08285237      -0.26584643       0.57924839      -2.02329201      -0.11075746
Pb      23.67042299       9.18346674       4.21352561       0.05808824      -0.52622521       0.17071770      -1.13271586      -3.61227534       0.42252706
I       20.89111237       2.93931416       2.15396270      -0.35782997       0.08821184       0.16297979      -0.76050967       1.25151466      -0.79468967
I       18.04796599       8.03395721       1.75845597      -0.02807686      -0.18235901      -0.09928008       0.89141321      -1.37545055       4.19064440
I       20.06537373       3.10415262       6.31300553       0.03490188       0.24459480      -0.27445577       0.30095989       1.24610938      -2.30217857
I       17.53045404       7.43746318       6.26675272       0.25407644      -0.20650477       0.13714112      -0.80272244       0.74381788      -0.63874285
I       21.83242300       6.35005411       4.15483222      -0.03675519       0.43813689       0.00664139       1.87468762      -0.71021496       0.80637548
I       16.45868254       4.05271871       8.75912857       0.08260949       0.37382739       0.08935608       1.43176503      -1.45580562       2.57809368
I       21.64921857      10.00580903       6.64816235       0.21435631       0.05440927       0.02976918       0.84830728       0.01351541       0.87317249
I       16.34628946      15.01243949       6.47289517       0.33403971      -0.10909949      -0.15773629       0.60721514      -1.27118344      -2.29345004
I       21.62912427      10.52114286       2.24506360       0.01339436      -0.00697223      -0.03456035      -1.60717276      -1.91864098       2.48238150
I       16.71517257      14.52858430       2.33716491      -0.04433704       0.12926366      -0.00554221       2.94499150       0.50697009       0.04778967
I       20.60258753      13.58042853       8.26584607      -0.03226499       0.02664664      -0.03678914      -1.16972122       0.30318396       1.88646543
I       17.78945831      11.46711976       4.72616197       0.24311948       0.09646392      -0.05701613       1.76231873       1.97067597       1.63502613
I       28.53465061       2.97362090       2.41150969      -0.29588369      -0.01843171       0.06823497       1.32729043       0.36980957       2.06765537
I       25.88732145       7.87777798       2.08367907      -0.15243852       0.09219626       0.05953599       0.42705204       0.45643539       2.04622402