320
Lattice="25.121854697261806 -0.05977452525107978 -0.12957468506993428 0.07192418218408468 24.82535238426277 -0.21579304325525844 0.12447059888337542 -0.778188195725328 24.81728374174729" Properties=species:S:1:pos:R:3:forces:R:3:momenta:R:3 energy=-976.3914397350111 stress="0.0 0.0 0.0 0.0 0.0 0.0 0.0 0.0 0.0" pbc="T T T"
Cs       9.57911859      14.45194775       5.36926965       0.14317604       0.05139680       0.12765364       1.72746181      -5.26369567      -2.80901257
Cs       3.10169199       9.65311640       4.85546670       0.13113919      -0.38795819       0.02755136      -0.15122970       1.90918303      -1.64774125
Cs       3.27412580       8.83046565      11.21839922       0.09405740       0.21009423      -0.11129147       1.45004073       0.03322071       1.29825621
Cs       9.65193523      14.74058351      12.07394037      -0.19000944       0.05056973       0.11327809       0.26830779      -0.45094980      -2.33453628
Cs       9.48499112       8.24195021      11.67303731       0.03329867      -0.08012300       0.23134667      -1.07981682       0.55211017       2.74548688
Cs       3.06747327      15.49175221      10.35268030       0.24833587      -0.03749885       0.16987089      -3.57800769      -0.55112261       0.59265448
Cs       3.05543228      15.98344714       4.51908107       0.04871905      -0.02323219       0.13155472       2.39976768       0.00707897      -2.43420923
Cs       9.32806410       8.79749128       5.59700153       0.17386779      -0.15758262       0.14215934       2.24324257      -1.39921892      -0.25970628
Pb       0.37094238       5.97925911       8.48160781      -0.63854660      -0.35706788      -0.45768442      -0.82704788      -0.94756502       3.64193851
Pb       6.68288100      12.20062363       8.59597839      -0.22769353       0.04939374       0.02707336       0.75325161      -1.80848941       1.02590576
Pb       0.41335507      12.00674279       8.39018020      -0.28830537       0.16846792      -0.17716547       0.68353245       3.64632049      -0.06059296
Pb       6.74674934       5.61651565       8.56875986      -0.03325338       0.13173387      -0.20216940      -1.49128222      -3.81799793       0.85738494
Pb      -0.05091747       6.04436017       2.20449141       0.21956945       0.15740436      -0.18618027      -1.39551248      -1.97288427       2.12708616
Pb       6.23579309      12.43656802       2.33338372       0.44677938      -0.20431852      -0.43327731      -0.89608439      -2.34986771       0.57212102
Pb      -0.11761944      12.28104056       2.19434577       0.17982400      -0.05939759       0.03418342      -0.17527067       2.37974859      -0.67335791
Pb       6.30857437       6.23854867       2.30345891       0.01362059       0.02976169      -0.04916487      -2.59286777       0.73636611      -0.96542204
I       24.64869096       8.88847247       8.78186026       0.07733620      -0.10074363       0.16508061       0.69156998      -1.26703203      -3.02748126
I        5.64829958      15.33660914       7.35617533       0.15564694      -0.56769973       0.09870754      -3.00284744      -3.92149129      -2.91488305
I       13.61274752      15.12293291       7.44954504      -0.21792579       0.19312085       0.08333914      -2.26844115       2.59307906       1.14071705
I        7.07529249       8.90787676       8.90874658      -0.04208333       0.18234042       0.02251294      -2.71386110      -0.98587374      -0.61894841
I        9.68209904      12.84851885       9.07499624      -0.05126008       0.00034260      -0.17012037       3.37436654       1.78871276      -0.77184191
I        3.42404828      18.75296242       8.38319855      -0.31224846       0.02265173      -0.05550343       1.49989677       3.40653146       1.33109178
I        3.51843264      11.40177377       8.30556683      -0.13805333      -0.00305136      -0.15601738      -0.43770920      -0.13831416       0.09316028
I        9.65682499       5.04175147       7.57765951      -0.33859571       0.31907279       0.05647866       2.94426221       0.53556541       0.45575003
I       12.36384634      15.55132172       2.67856505      -0.06423439      -0.39230441       0.24442454       3.32531364      -1.99102106      -1.27010507
I        5.93585153       9.29296970       1.40942917      -0.05381973      -0.07028939       0.05973194      -2.00004021       0.49751552       0.93405655
I        0.61242298       8.98819440      13.90364692      -0.04751667      -0.05467217       0.05466128       1.84285682      -2.38847858       1.26684405
I        6.79989433      14.97951827      15.00562016       0.19984677      -0.03313610       0.16239450      -0.24099113      -0.67759893       1.06339921
I        3.45150586      12.42948815      15.51990736       0.08448790       0.00925869      -0.03335136       0.01441359      -0.89760854      -0.95680473
I        9.56612717       6.42286670      15.21340851       0.12052149       0.08297717       0.06466257       0.99137413      -0.83593606       1.52112970
I        9.49313634      11.81571384       1.74510593       0.15063936       0.00978605       0.12551159      -2.70123375      -0.04888660      -1.25668083
I        3.24450357      18.06984189       1.41811804      -0.03161935      -0.01901925      -0.05906297       1.56564996      -1.47776127      -0.06419504
I       25.06053692      17.57881732      11.12857959      -0.12160164      -0.03655004      -0.10469493      -1.47586187       0.54163421      -0.50373467
I        5.58302096      12.47259733      11.61128948       0.09615068       0.09321242      -0.12026247      -0.14261383      -0.95548033       2.60669722
I       13.35460155       6.68072090       5.58069280      -0.08976754       0.14958493      -0.14393278      -1.73784672       1.04555855       2.26279915
I        6.70370675      11.49264435       5.29504948       0.04577575       0.07370163       0.14766540      -0.97511872       1.61955678       1.64536305
I       24.57634094      11.25837154       5.15145811       0.02291991       0.19727705       0.02745063      -2.02134821      -0.40236069       1.66535610
I        5.68376262      18.95445295       4.99504370       0.20795825       0.07062829      -0.36520656       1.23047663      -1.26778037      -2.73865991
I       13.39583386      12.71834288      11.31865028       0.01553808      -0.02137218       0.64484256       0.48065009       0.27842386       4.69748189
I        6.79992644       4.82326569      11.63793754       0.02147246       0.21038106       0.07957235       3.03324727       1.56035277      -2.11800453
Cs       9.58792532      14.41238645      17.79059314      -0.03178020       0.19034830      -0.08693245      -1.30869271      -0.59695454      -1.15875929
Cs       3.18712908       8.83920973      16.88528158       0.08554051       0.31182705       0.20515416      -0.05845320      -1.96824024      -1.29209971
Cs       3.20405656       9.40244000      23.65478529       0.10019612       0.01627456       0.10138476      -0.45920395      -1.61664533      -2.55193974
Cs       9.74720259      15.16773636       0.03764640      -0.09059659      -0.00360503      -0.19632859       0.23438018       1.47972449      -0.37030273
Cs       9.72306716       7.89652663      24.05507320      -0.08090334       0.02976440       0.21653197       1.55669475       1.99786359      -1.09239612
Cs       3.41670729      15.16258532      22.88852254       0.03606353      -0.26690356       0.11522895       2.21698987      -0.41505586       2.88488630
Cs       3.47865213      15.84978840      17.36833095      -0.24796519       0.00066444      -0.23346311       1.33554109      -0.78120828       0.14584420
Cs       9.57252471       8.91110736      18.41715194       0.08958179      -0.34504859       0.02966296       3.06842201      -1.43672027       1.87159416
Pb       0.24681866       5.76452585      20.63284981      -0.24619953      -0.26982659       0.64317870       1.73248541       2.33397976       4.89236376
Pb       6.60291692      11.93063075      20.70642513      -0.32591101       0.28282393       0.36487996       0.99075205      -2.60422552      -0.81558390
Pb       0.23234133      11.66578941      20.59449242      -0.15078933       0.18499445       0.18530049       1.07936640      -2.52703013      -0.04667159
Pb       6.46251954       5.68529046      21.00269105      -0.23564572       0.15328330       0.23648078      -0.07752568       0.64157433       0.63936650
Pb       0.16659120       5.76671956      14.54509680      -0.14084017      -0.18433914       0.18202196      -1.42239365       3.39086748       0.42421773
Pb       6.59673136      11.87490102      14.74458950      -0.36564499      -0.01863210      -0.40115582      -2.37898856       2.62584856       1.12767523
Pb       0.47408562      12.18597592      14.49638241       0.01978843       0.11774401      -0.01218224       2.27437571       0.37420429       2.65761700
Pb       6.58952078       5.77025208      14.93310690       0.02542866      -0.18211851      -0.18315574       0.23588636       1.03474810      -0.83088385
I       24.83922273       8.64139050      21.74569261      -0.03265496       0.28910214      -0.27914404       0.69659808       0.11335094       1.25964082
I        6.06293120      15.12781333      19.41825642       0.27007180      -0.26956822       0.40105076      -2.80280622       1.08905055      -0.16727144
I       13.44024609      14.95220200      19.34037528      -0.06588966       0.16441044       0.37480887      -0.18159888      -2.80194075       3.11099744
I        6.91368504       8.98950763      21.58959637      -0.03343770      -0.30788708      -0.04724088       0.67059027       0.65384012      -1.43771952
I        9.72135184      12.47453359      20.87423210      -0.15706385       0.08897464       0.26903150      -3.98441467      -0.30653860      -1.97585181
I        3.56786931      18.37771013      21.19232274       0.03047900       0.18933061      -0.06346146       1.46671172       1.33972336       2.36603063
I        3.35027241      11.53496898      20.45255796       0.01694648      -0.16010495      -0.21549396       1.00900755      -0.38730775       0.79368120
I        9.44604396       5.50815103      20.58091405       0.17138042      -0.07441733      -0.18553085      -0.13954078       0.48746877      -0.42594437
I       12.20277090      15.13639383      14.99968226       0.06577362      -0.34811874       0.08159478      -5.48525413      -0.67898784       2.15853783
I        5.93039886       8.80389581      13.87488300       0.07945827      -0.10067543       0.07902991      -1.76257006       0.83018912       3.14892044
I        0.33482191       9.23326099       1.51930149       0.11284528      -0.04726538      -0.00016219       2.45995061      -3.19253901      -2.87674207
I        6.99844484      15.42712948       2.94605571      -0.12025378      -0.05688522      -0.06925277       0.56013370      -0.56788380       1.80832441
I        3.26068488      12.53750660       2.71219556      -0.50638469       0.21519914      -0.10275241      -2.28438934       0.56613023       0.23630363
I        9.47513384       6.50801324       2.57790028       0.07944416      -0.09411849       0.01935804      -1.67631451       0.51037068       0.83472179
I        9.69216232      11.31937387      14.06614368      -0.02658759       0.03294202       0.05513396       1.39611109      -2.19906157      -0.83489702
I        3.46304485      17.42859598      13.84352027      -0.57639544       0.03829441      -0.04915050      -3.41395038       0.98338484       1.02793586
I       24.68253185      17.19792781      23.50985118      -0.00892968      -0.06890417      -0.08525726       1.58898776       1.84854538      -0.22990514
I        6.29111863      12.48866540      23.84424548      -0.10775279       0.08724418       0.14841488      -0.68712190      -0.16215504       0.63560409
I       13.54915396       6.44307151      17.75752252      -0.32273483      -0.11880870       0.27225969       0.30765740      -0.65700014       2.17270159
I        6.50765292      10.96083426      17.71267922       0.23466371      -0.00159118      -0.15878677       0.18986937       1.13110130       0.84525719
I       24.83406420      11.15516840      17.25491538      -0.04400730      -0.17005245       0.68134775      -0.42535131      -1.02937792      -1.09158026
I        5.92545055      18.63137314      17.33695567       0.04319384       0.19156495       0.44476553       4.93255069      -1.96052047       2.98648518
I       13.13312498      12.43083021      24.05639624       0.00611349      -0.00829398      -0.49987747       0.09583036      -1.39803836       0.62338772
I        6.91302769       4.69142663      24.02844322       0.03478131       0.00666880      -0.10285863      -2.38902130      -1.71560320      -0.97326683
Cs       9.29789103       2.29559235       5.31414324       0.09879373      -0.24341529       0.02456364      -0.52129674      -2.19934115      -2.93567070
Cs       3.16072617      21.67252486       4.23949089      -0.07253975      -0.08948850      -0.02837935      -2.71899539       0.12702171      -1.88087980
Cs       3.29955813      21.63522646      10.66374313       0.02065240      -0.00106522       0.26294580      -0.13593069      -0.70680851       0.53966163
Cs       9.54651079       2.25024527      12.49314600      -0.00528118      -0.01853537      -0.09273655       1.54639066       1.56548138      -1.38398982
Cs       9.64493472      20.76449888      12.09887084       0.02912151      -0.04616872      -0.36110399       3.20378128       0.99097660      -1.88813479
Cs       3.18351588       3.19460572      11.35566855       0.15987241       0.02139619      -0.14119811      -0.50679727       0.43482201       3.02248630
Cs       3.44915518       3.55207860       5.04362917      -0.08722508      -0.07624484       0.07767156       1.98111919      -0.38178985       0.34038299
Cs       9.38372987      21.15613398       5.20960146       0.01602071      -0.12095638      -0.01777987       2.34533917       4.44718352       0.08896548
Pb       0.17802760      18.36732589       7.99789529       0.40485301      -0.17216323       0.41899334       2.13139105      -1.99204707       3.35913499
Pb       6.35637602      -0.51849055       8.40165244       0.28152090      -0.01000131       0.30245520      -0.42585644       2.16518142      -1.46637132
Pb       0.24523665      -0.37807753       8.42531615       0.09390445       0.11452465       0.16941288      -0.57173384      -0.70887600       0.08168537
Pb       6.47322769      18.27585736       7.91220765       0.01685360       0.11450949       0.44115542      -2.20312466      -1.12848395      -2.38929274
Pb      -0.05855510      18.44556845       1.86723453       0.27468881       0.32123606      -0.26214022      -3.14523393      -2.01073888       0.48975895
Pb       6.30634928      -0.22653571       2.10878854      -0.19495343      -0.00920099       0.39361789      -1.07085842       3.53018471       1.78721156
Pb      -0.00647661      -0.00024983       2.24779618       0.03613253      -0.45151253      -0.08944278      -0.91480117       2.06539465      -0.84083395
Pb       6.44865882      18.37361287       1.70465624       0.19349770       0.06452257       0.30976664       1.57427536      -2.77181317       0.93436605
I       24.97484474      21.27471242       8.78717926      -0.08145053       0.00060928       0.05443076       1.40714686      -1.37306546       0.75595787
I        5.95439431       2.66627174       7.96131469      -0.14139628       0.08860259      -0.12431490      -2.13593257      -0.96740780       0.40671429
I       12.76288161       2.85201214       7.98119717       0.20871482      -0.21416779      -0.07457399      -1.20816855       1.09137399      -0.56073010
I        7.22387665      21.37553928       9.06370420      -0.00979513      -0.07628385      -0.09510066      -2.47500044      -1.86055717      -0.58483858
I        9.58439286       0.53316793       8.97263491      -0.27758690      -0.03327585      -0.01433572       1.53179340       0.13467548      -1.97212811
I        3.38744100       6.24346834       8.48707923       0.06748907      -0.08440893       0.07611249       2.08007984      -1.30908164      -0.17395498
I        3.48987119      23.60031787       7.45042492      -0.34247699       0.09510720       0.11555425       1.29316799       0.33683172      -0.73876224
I        9.55036239      17.98212493       7.29589261       0.27379186      -0.23837367      -0.05424290       1.66660948      -0.99138711       1.18679041
I       12.48779194       2.90366478       2.80237823      -0.18636088      -0.02602847       0.20729878       0.28261604       2.16903265       0.81803580
I        5.90825601      21.34219326       1.21145659       0.00636916       0.62334342      -0.12968260       1.90509498      -0.46057386      -0.24530047
I        0.58587253      21.46375239      13.79994971       0.28524123      -0.01650368      -0.19108972      -0.35323523       0.34705189       2.65463251
I        6.81807560       2.57761225      15.51768621       0.07931944       0.07999886       0.00861508       0.61482317       0.45390823      -1.77063620
I        3.28004941       0.17949210      15.49245179      -0.15987486      -0.04420766       0.06151171      -2.94723908      -0.49296733       0.82472397
I        9.47121739      18.34500930      15.07095617       0.32643529       0.14912450       0.07998261       3.39891987       1.87132079       1.10780982
I        9.50018032      24.25341249       2.45967650       0.36616300      -0.07325945      -0.34783627      -3.45948099      -0.65104668      -0.67404626
I        3.20992702       5.66468293       1.96965878      -0.19808050       0.11572298      -0.02091370       3.53740214      -0.36994315       1.03946485
I       24.56729387       5.10739543      11.35596229       0.20201724       0.08437807       0.22661590      -0.30579406      -1.01295003       1.80472360
I        5.77364565       0.18901038      11.72630394      -0.02404452       0.01053319      -0.29883735       1.18618750      -3.71308489      -0.20521095
I       13.19495669      18.85948453       5.14652700       0.08586320       0.20140442      -0.18597399       3.47312112      -1.15592014       0.14132771
I        6.54517516      23.69451720       5.18426353       0.05176495       0.10192328      -0.12073162       3.43386936       1.78074047      -0.49618071
I       24.79640342      23.72069862       5.04169849       0.03710934       0.05584894      -0.02055164      -2.39187182       2.60586515      -0.72614264
I        6.27235452       6.83161345       5.39035773      -0.26059170       0.01333629       0.24169207       0.99423403       1.52987537      -2.08069278
I       13.48025881       0.20681225      11.77201031      -0.15151958      -0.08051046       0.04688126      -1.99681772      -1.74278044      -0.40024915
I        6.95440154      17.50920405      11.21351279       0.05606567       0.00870339      -0.28962376      -1.11100816       2.24052185      -0.68208992
Cs       9.34746398       1.90961815      18.58744171       0.09085341       0.25829627      -0.33440967       3.14787033      -1.76722968      -1.03895441
Cs       3.32205400      21.62837466      17.34583527       0.01837486       0.05298331      -0.07167058       1.83900115      -2.51638355       0.23149274
Cs       3.28118325      21.84052887      23.25578575       0.12785962      -0.00420248       0.09647865      -1.85133312      -0.02389449       4.74687096
Cs       9.57781380       2.83151532       0.25838727       0.06276858       0.09880375       0.07524229      -0.10936510      -2.84081865       0.77363921
Cs       9.77453144      20.63370110      23.85888782       0.13581371       0.01114919       0.21666825       0.84864671      -1.00340311      -0.59347665
Cs       3.23495383       2.88601162      23.60389339      -0.02111878      -0.04405367      -0.10320877      -0.39467136      -2.93216291      -6.21621943
Cs       3.16116437       3.28010402      17.87047062       0.00611357      -0.08772896      -0.24659816       3.08369644       0.95445682       1.93137965
Cs       9.61893404      21.14081552      18.20984452      -0.17310505      -0.27531256      -0.16874547      -1.09877104       1.07744941      -0.33632379
Pb       0.47671212      18.02665795      20.53165676      -0.31035009      -0.19958955       0.02068250      -1.39000519      -4.81295359       0.18008818
Pb       6.45585373      -0.51628088      21.00137070       0.07195547       0.07197706      -0.07834604      -0.15051352      -3.36919532      -0.53017256
Pb      -0.01419005      -0.56811093      21.00097934       0.07164601       0.28355097      -0.16528574       1.66828514      -1.43003864       2.58589741
Pb       6.74052726      18.10551446      20.50159816      -0.14117809      -0.25812740      -0.21688270       1.39937932       0.44390383       0.71176494
Pb       0.19122581      18.35007785      14.32986682       0.37799491       0.00078288      -0.13666606       0.50506972       2.41481803       0.80607276
Pb       6.27929032      -0.53006276      14.58074122      -0.06473964       0.04541306       0.26370290      -1.83039980      -1.40344089      -1.76709281
Pb       0.14359982      -0.47254633      14.67678658      -0.00036835       0.36038785       0.19437855       3.55547981      -1.51100172       1.59633531
Pb       6.37346273      18.04706322      14.24797544      -0.05783339       0.14312734      -0.16237613       0.79207125      -3.03736866      -1.16945339
I       25.35332033      21.08470049      21.37656689      -0.15160192      -0.01089481      -0.09518559      -1.20254647       1.86266936      -0.15685109
I        5.89863433       2.67554086      20.36843701       0.09872012      -0.11180829       0.05092068      -3.41588049       0.03149949      -0.53348030
I       13.15530095       2.57057303      20.16540615      -0.11797652      -0.01205150       0.06410340       0.54776848       0.24124307       2.12125054
I        7.04189621      21.16921978      21.39529143      -0.09049838       0.25252700      -0.06013328      -0.87172998       1.96295951      -0.83647028
I        9.65816525       0.20521840      21.77086917      -0.21356767      -0.16669361       0.06956903       0.51598059       1.51514533      -1.67928256
I        3.17205738       6.11929573      21.59812328       0.37052412       0.00482865      -0.02403624       0.48829115       1.46869629      -0.05129714
I        3.40964240      24.43164573      20.21875536      -0.07891094      -0.09228045       0.06829681      -0.50736194      -2.35589143       1.05503773
I        9.92304211      17.86177278      20.05195661      -0.39470745      -0.19116418      -0.05052670       0.27744822      -0.91392745      -1.34089610
I       11.84334139       2.68934684      15.30125234      -0.02983465      -0.09937261       0.31993187       2.37665730      -3.83772956      -0.56977221
I        5.61388324      21.23319277      13.88173982       0.07974011       0.00095136      -0.00202219       1.71879091      -0.28001383      -1.70403611
I        0.63121139      21.67642859       1.09796159      -0.08445698      -0.06497469       0.15662264       3.14638517       0.18395537       0.13861170
I        6.36365476       2.98158446       3.12850927       0.05019826      -0.18107885      -0.17890979       0.64429983       0.35773936       0.42485623
I        3.19298046       0.14212381       2.56684399      -0.21798129       0.18369216       0.08637625      -1.61126728      -2.19032203      -0.14903027
I        9.82228311      18.75414078       1.93520828      -0.33240456       0.03198250       0.10799648      -1.59197337       0.23095002       0.47415500
I        9.54598462      23.69705249      14.05559402       0.01105022       0.07991386       0.07197107       0.14593873      -2.26320569      -0.57819496
I        3.34191877       5.38082379      14.40950765      -0.21755316       0.03458903       0.01578942       3.12372817      -2.65873690       2.23986309
I       24.71541755       4.60020740      23.80781686       0.06148320       0.11555445      -0.11787381       0.98425968       0.54483685      -0.35350123
I        6.03303186       0.18478373      24.14355154      -0.00799255      -0.04077638      -0.06012914       0.28175781      -0.72435319      -1.11950499
I       12.87963982      18.72236871      17.36723931       0.29783035       0.25886502       0.34129041       0.73477374      -0.68438145      -0.69480475
I        6.97197192      23.79500725      17.79709018      -0.00486425      -0.03431399      -0.23271729      -1.17480066      -1.02047478      -1.54390546
I       24.89975376      23.51996166      17.46111338      -0.02918052      -0.01003200       0.20613900       1.09030513      -1.37511728      -1.30339589
I        5.67665038       6.20916601      17.92909039       0.15713239       0.12879118      -0.10692401       2.14769498       3.17092769      -0.15661339
I       13.29302133      -0.24816539      24.13323717      -0.05748633      -0.06817789       0.31903739      -2.43749575       2.05209085       1.22330645
I        7.25464450      17.10623541      23.46737416      -0.03119606      -0.10262718       0.13453467       0.01752347      -3.99284678      -0.92683673
Cs      21.98001311      14.94396190       5.69379748       0.15357203      -0.27368186       0.09390614      -1.67160681      -1.75577734       0.13184353
Cs      15.86188863       9.84148443       4.80656474      -0.09395201      -0.04416669      -0.15500632      -1.12817698       0.64239484      -1.79690828
Cs      16.01763835       9.17706413      11.27617997      -0.12996649       0.07216129      -0.16854660      -0.64526503      -0.60664673      -2.45105048
Cs      21.98684220      14.94687429      11.91187322       0.26161502       0.11813056      -0.00408860       0.50744265      -2.61165282      -1.63448820
Cs      22.39687384       8.53449100      11.96749404      -0.23205474      -0.09469578      -0.14111807       0.30241923       1.31945923      -2.33465771
Cs      15.61128779      15.95384091      10.63160901       0.01423484      -0.26188077       0.06907576      -1.50984011       2.02565007      -0.63520823
Cs      16.26100124      16.02336308       4.76439196      -0.12312364       0.07785255      -0.02056431       2.21848201       4.29815990      -0.90363674
Cs      21.93280204       8.49478035       5.95794128       0.02066594       0.04629548      -0.01171865       0.26149267      -2.16746652      -0.51332266
Pb      12.54812008       5.82621166       8.62821589       0.06466458       0.17427935       0.13377073       3.69457743      -1.99391257      -3.29671593
Pb      19.01614059      12.17629536       8.49137849       0.35693513      -0.49130914      -0.23399259      -0.99591395       0.95918247      -0.84179872
Pb      12.78001475      12.09228136       8.41223584       0.01553867      -0.00544528      -0.06151883      -3.80080531      -2.26312920       2.15703594
Pb      18.90362585       5.81907108       8.22405839       0.26157899       0.24689019       0.20927168      -0.08129216      -0.00980585      -1.26185235
Pb      12.72612016       6.10440269       2.65650262      -0.19905812       0.12178859      -0.34165318       2.08249153      -0.28739212      -3.11008293
Pb      19.05939815      12.34343371       2.23236246      -0.13362524      -0.17388906      -0.06918301      -2.74631433       2.59042183      -1.75203826
Pb      12.70813475      12.37135920       2.20503712      -0.21786359      -0.10740466       0.10945289      -0.61699916      -0.99721427      -2.20675069
Pb      18.78483827       6.01672895       2.18283926      -0.12793805       0.12973925       0.38427849       0.03711920      -0.81330582      -4.02546044
I       11.99804981       8.95287499       9.13356350       0.04712749       0.18385592      -0.07511620      -1.92623814      -1.09757371      -0.17488041
I       18.46795489      15.22687659       7.76953114      -0.00008635      -0.18987649      -0.18208921       1.45169138      -0.85041482       0.82060455
I        0.71087099      15.10736102       7.61253387      -0.03080139       0.04341283      -0.10021955       1.29791222      -0.88762542       1.61213679
I       19.39994134       9.07968507       9.21042322       0.07839585      -0.24376793      -0.05844099       0.34923042      -1.80088692      -0.94259463
I       22.36313594      12.57990173       9.13231088      -0.35825446      -0.04123515      -0.29671702      -0.77498480       2.43067252      -2.34487150
I       15.92909024      18.76327729       8.07913629      -0.18612959       0.12525971       0.06178356      -0.24284292      -1.85400004      -0.81446133
I       15.85967689      11.39961174       8.01709623       0.27299938       0.08020348       0.07323945       2.68055478      -1.10373359      -1.01456022
I       22.01896702       5.26450661       7.95381883       0.47177136       0.10466495       0.07090123       0.43631096      -0.21809492       3.38281037
I       24.40665650      15.44473617       2.55647211      -0.01172758      -0.22805736       0.09476388       0.00594583      -0.12849469      -1.24836130
I       18.12522331       9.23484454       1.82368911       0.21662019      -0.07502229      -0.08741495       0.44459661       0.40187996      -1.23173891
I       13.47538538       8.73327564      14.02127862      -0.15825300       0.43844349      -0.01790377       0.20928246       0.69125701       2.31807387
I       19.58889609      15.03551343      15.07400953      -0.18918404      -0.01447564      -0.08471276       1.52154835       0.72706114       1.31001942
I       16.01472451      12.43477549      15.08772287      -0.18970156       0.09769767       0.03796591       1.50964950       2.75806321      -5.36392318
I       22.09448358       6.36016285      15.29658050       0.36420950      -0.07556333      -0.35222449      -2.18596221       1.84937811      -1.57497058