320
Lattice="25.121854697261806 -0.05977452525107978 -0.12957468506993428 0.07192418218408468 24.82535238426277 -0.21579304325525844 0.12447059888337542 -0.778188195725328 24.81728374174729" Properties=species:S:1:pos:R:3:forces:R:3:momenta:R:3 pbc="T T T"
Cs       9.72007085      12.79999970       4.47862013      -0.13012407      -0.05475664      -0.00903070      -1.74849310      -1.71039716       0.19876667
Cs       3.21221540       7.46510980       3.83833023      -0.01964635       0.07895465      -0.10147025      -0.56522239      -1.54225557       1.01687492
Cs       3.25214662       7.63899267      10.11948977      -0.02782789      -0.09943124      -0.09825035      -0.75211883      -1.51064322      -1.38491705
Cs       9.74365150      12.96943791      11.51817900      -0.16332955      -0.03675068      -0.07837750       0.16335126      -0.99588521      -0.73523957
Cs       9.50722948       6.18446181      10.84552710      -0.03334054       0.05797988       0.19681996      -0.55585306      -0.57426598       1.16311929
Cs       3.14584045      13.50775557       9.72921831       0.18299647       0.10539169       0.15118839       1.32579871      -1.29561359      -1.22149611
Cs       3.16137515      14.34487320       4.07183931       0.14191976      -0.02997304      -0.03872426      -2.69938861       0.58273984      -0.51148403
Cs       9.49108903       6.82901392       5.04516349       0.10211001      -0.00964996       0.00211936       0.06636253      -1.75232803      -1.75702636
Pb      25.15968428       4.09575749       7.40117319      -0.18037079       0.08370809      -0.02124001      -0.49217226       1.57729307      -1.21633037
Pb       6.33246215      10.24263680       7.55990541       0.16262594       0.02394094      -0.23323799       0.15682909      -0.61415343       0.27361657
Pb      25.09531024      10.39267195       7.47190976       0.23040348      -0.22545668      -0.32997746      -1.37831534      -2.66675102       0.45670481
Pb       6.43212580       4.07833306       7.48624946      -0.06050425      -0.18954063       0.07022208       1.15021169       0.84233192       1.12522924
Pb       0.03375916       4.32363915       1.33782163      -0.20573171      -0.15828455      -0.07447508       0.94138886      -0.33436846      -4.88844348
Pb       6.37356862      10.14129107       1.30271775      -0.06441068       0.19387076       0.11852131       0.45196848       0.58976007      -0.57530145
Pb       0.18220696      10.31477842       1.20826350       0.00040803       0.09992186       0.35782752      -0.67385373      -1.27179182      -2.17252522
Pb       6.31804317       4.08014935       1.27330568      -0.02610932      -0.05293776       0.10112352       0.01178064       1.78665645       0.15701129
I       24.57658781       7.32632135       8.13103291       0.07646094      -0.34304015      -0.12487377      -0.18218757      -1.20600207       0.80788090
I        6.00782971      13.36648023       6.69364915      -0.07389721      -0.28029995      -0.03212063      -1.45727718      -0.53609178       1.07968643
I       13.19723583      13.43059673       6.57891105      -0.05755000       0.16382720       0.11457307      -0.78045155      -0.56177387       0.42866746
I        7.05020519       7.02616875       8.35286655      -0.12873038       0.37182453      -0.14843111      -0.32734253      -1.82717831       0.63578593
I        9.61017593      11.25193953       8.04198155      -0.11105367      -0.12592574      -0.00669602       0.91999854       1.60735369      -0.71478806
I        3.16843095      16.63600103       7.80837613       0.06881610       0.26695459       0.01759371       0.56449404       1.22058193       0.08617324
I        3.35820412       9.67879944       6.85461214      -0.28644838       0.13012709       0.15002985       0.66732350       0.58486328      -0.55039025
I        9.40814901       3.39982646       6.92832284       0.17445075       0.10910753      -0.00305195       0.43985141      -0.96418241      -0.67185217
I       12.18530765      13.47786263       1.60822521       0.07974494       0.04033578       0.05172788       0.09651849      -0.23274613       0.59450376
I        5.59427574       7.17503935       0.41445553       0.12725717      -0.02039365       0.09374085       0.45022540      -0.02732203       0.99809563
I        0.45961440       6.89442123      12.73514102       0.12583846       0.12669281       0.09828874       0.88576351      -1.58847626      -1.21532990
I        6.96699447      12.97438369      14.36348191      -0.11664259       0.07897749      -0.03645771       0.01045300       0.55200092      -0.08162768
I        3.37500997      10.57959747      14.67359534      -0.28235638      -0.13246980      -0.15022295      -0.93369552      -1.61932677       0.15413028
I        9.40531586       4.29216964      14.32554305       0.09594607      -0.03229995      -0.09907423      -0.13046818       0.91885448      -1.20278083
I        9.47763285       9.86003596       0.67362155       0.27371348      -0.04862400      -0.01099234      -0.64954939       0.85090601       0.85081611
I        3.06523057      16.33927327       0.65362139       0.14764782      -0.14283004      -0.06767129       1.04656284      -2.91106894      -0.29208562
I       24.42595390      15.93168277      10.29972185       0.18238251      -0.16705343       0.07373251      -0.95133135      -1.10254934      -0.95916474
I        5.84759683      10.78321141      10.69312714      -0.04073368       0.01938117      -0.30882917       1.24927569       0.09242291       1.26118149
I       13.06151578       4.88798572       4.30724491      -0.06134055      -0.01055148       0.09289286       0.72436502       0.32132296      -0.23133889
I        6.94840061       9.26394548       4.29404438      -0.06328401       0.24552110       0.40587239      -1.64646276      -0.82138197      -1.35651160
I       24.65996592       9.70925106       4.27682903       0.02299476      -0.05345274      -0.03596796      -2.22293505      -0.16285314       1.03142870
I        5.80605167      17.22754895       4.35243836       0.07926742      -0.04248970       0.00911997       0.87284269       2.54007644      -2.53303833
I       13.56575898      10.72647378      10.54680264      -0.14375551       0.04850723       0.06154430       0.41704605      -0.64645575       0.11529643
I        6.82844132       3.05692667      10.65987076       0.00220339       0.01118744      -0.15776551       2.36233746       0.52897540       0.91174637
Cs       9.78230615      12.41090560      16.88726200      -0.13012407      -0.05475664      -0.00903070      -1.74849310      -1.71039716       0.19876667
Cs       3.27445070       7.07601570      16.24697210      -0.01964635       0.07895465      -0.10147025      -0.56522239      -1.54225557       1.01687492
Cs       3.31438192       7.24989857      22.52813164      -0.02782789      -0.09943124      -0.09825035      -0.75211883      -1.51064322      -1.38491705
Cs       9.80588680      12.58034381      23.92682087      -0.16332955      -0.03675068      -0.07837750       0.16335126      -0.99588521      -0.73523957
Cs       9.56946478       5.79536771      23.25416897      -0.03334054       0.05797988       0.19681996      -0.55585306      -0.57426598       1.16311929
Cs       3.20807575      13.11866147      22.13786018       0.18299647       0.10539169       0.15118839       1.32579871      -1.29561359      -1.22149611
Cs       3.22361045      13.95577910      16.48048118       0.14191976      -0.02997304      -0.03872426      -2.69938861       0.58273984      -0.51148403
Cs       9.55332433       6.43991982      17.45380536       0.10211001      -0.00964996       0.00211936       0.06636253      -1.75232803      -1.75702636
Pb      25.22191958       3.70666340      19.80981507      -0.18037079       0.08370809      -0.02124001      -0.49217226       1.57729307      -1.21633037
Pb       6.39469745       9.85354270      19.96854728       0.16262594       0.02394094      -0.23323799       0.15682909      -0.61415343       0.27361657
Pb      25.15754554      10.00357786      19.88055164       0.23040348      -0.22545668      -0.32997746      -1.37831534      -2.66675102       0.45670481
Pb       6.49436110       3.68923896      19.89489133      -0.06050425      -0.18954063       0.07022208       1.15021169       0.84233192       1.12522924
Pb       0.09599446       3.93454505      13.74646350      -0.20573171      -0.15828455      -0.07447508       0.94138886      -0.33436846      -4.88844348
Pb       6.43580392       9.75219697      13.71135962      -0.06441068       0.19387076       0.11852131       0.45196848       0.58976007      -0.57530145
Pb       0.24444226       9.92568432      13.61690537       0.00040803       0.09992186       0.35782752      -0.67385373      -1.27179182      -2.17252522
Pb       6.38027847       3.69105525      13.68194755      -0.02610932      -0.05293776       0.10112352       0.01178064       1.78665645       0.15701129
I       24.63882311       6.93722726      20.53967479       0.07646094      -0.34304015      -0.12487377      -0.18218757      -1.20600207       0.80788090
I        6.07006501      12.97738613      19.10229102      -0.07389721      -0.28029995      -0.03212063      -1.45727718      -0.53609178       1.07968643
I       13.25947113      13.04150263      18.98755292      -0.05755000       0.16382720       0.11457307      -0.78045155      -0.56177387       0.42866746
I        7.11244049       6.63707465      20.76150842      -0.12873038       0.37182453      -0.14843111      -0.32734253      -1.82717831       0.63578593
I        9.67241123      10.86284543      20.45062342      -0.11105367      -0.12592574      -0.00669602       0.91999854       1.60735369      -0.71478806
I        3.23066625      16.24690693      20.21701800       0.06881610       0.26695459       0.01759371       0.56449404       1.22058193       0.08617324
I        3.42043942       9.28970534      19.26325401      -0.28644838       0.13012709       0.15002985       0.66732350       0.58486328      -0.55039025
I        9.47038431       3.01073236      19.33696471       0.17445075       0.10910753      -0.00305195       0.43985141      -0.96418241      -0.67185217
I       12.24754295      13.08876853      14.01686708       0.07974494       0.04033578       0.05172788       0.09651849      -0.23274613       0.59450376
I        5.65651104       6.78594525      12.82309740       0.12725717      -0.02039365       0.09374085       0.45022540      -0.02732203       0.99809563
I        0.39737910       7.28351533       0.32649915       0.12583846       0.12669281       0.09828874       0.88576351      -1.58847626      -1.21532990
I        6.90475917      13.36347779       1.95484004      -0.11664259       0.07897749      -0.03645771       0.01045300       0.55200092      -0.08162768
I        3.31277467      10.96869157       2.26495347      -0.28235638      -0.13246980      -0.15022295      -0.93369552      -1.61932677       0.15413028
I        9.34308056       4.68126374       1.91690118       0.09594607      -0.03229995      -0.09907423      -0.13046818       0.91885448      -1.20278083
I        9.53986815       9.47094186      13.08226342       0.27371348      -0.04862400      -0.01099234      -0.64954939       0.85090601       0.85081611
I        3.12746587      15.95017917      13.06226326       0.14764782      -0.14283004      -0.06767129       1.04656284      -2.91106894      -0.29208562
I       24.48818920      15.54258868      22.70836373       0.18238251      -0.16705343       0.07373251      -0.95133135      -1.10254934      -0.95916474
I        5.90983213      10.39411731      23.10176901      -0.04073368       0.01938117      -0.30882917       1.24927569       0.09242291       1.26118149
I       13.12375108       4.49889162      16.71588678      -0.06134055      -0.01055148       0.09289286       0.72436502       0.32132296      -0.23133889
I        7.01063591       8.87485138      16.70268625      -0.06328401       0.24552110       0.40587239      -1.64646276      -0.82138197      -1.35651160
I       24.72220122       9.32015697      16.68547091       0.02299476      -0.05345274      -0.03596796      -2.22293505      -0.16285314       1.03142870
I        5.86828697      16.83845485      16.76108023       0.07926742      -0.04248970       0.00911997       0.87284269       2.54007644      -2.53303833
I       13.62799428      10.33737968      22.95544451      -0.14375551       0.04850723       0.06154430       0.41704605      -0.64645575       0.11529643
I        6.89067662       2.66783257      23.06851263       0.00220339       0.01118744      -0.15776551       2.36233746       0.52897540       0.91174637
Cs       9.68410876       0.38732351       4.58651665      -0.13012407      -0.05475664      -0.00903070      -1.74849310      -1.71039716       0.19876667
Cs       3.24817749      19.87778599       3.73043371      -0.01964635       0.07895465      -0.10147025      -0.56522239      -1.54225557       1.01687492
Cs       3.28810871      20.05166886      10.01159325      -0.02782789      -0.09943124      -0.09825035      -0.75211883      -1.51064322      -1.38491705
Cs       9.70768941       0.55676172      11.62607552      -0.16332955      -0.03675068      -0.07837750       0.16335126      -0.99588521      -0.73523957
Cs       9.54319157      18.59713800      10.73763058      -0.03334054       0.05797988       0.19681996      -0.55585306      -0.57426598       1.16311929
Cs       3.10987836       1.09507938       9.83711483       0.18299647       0.10539169       0.15118839       1.32579871      -1.29561359      -1.22149611
Cs       3.12541306       1.93219701       4.17973583       0.14191976      -0.02997304      -0.03872426      -2.69938861       0.58273984      -0.51148403
Cs       9.52705112      19.24169011       4.93726697       0.10211001      -0.00964996       0.00211936       0.06636253      -1.75232803      -1.75702636
Pb      25.19564637      16.50843369       7.29327667      -0.18037079       0.08370809      -0.02124001      -0.49217226       1.57729307      -1.21633037
Pb       6.36842424      22.65531299       7.45200889       0.16262594       0.02394094      -0.23323799       0.15682909      -0.61415343       0.27361657
Pb      25.13127233      22.80534815       7.36401324       0.23040348      -0.22545668      -0.32997746      -1.37831534      -2.66675102       0.45670481
Pb       6.46808789      16.49100925       7.37835294      -0.06050425      -0.18954063       0.07022208       1.15021169       0.84233192       1.12522924
Pb       0.06972125      16.73631534       1.22992511      -0.20573171      -0.15828455      -0.07447508       0.94138886      -0.33436846      -4.88844348
Pb       6.40953071      22.55396726       1.19482123      -0.06441068       0.19387076       0.11852131       0.45196848       0.58976007      -0.57530145
Pb       0.21816905      22.72745461       1.10036698       0.00040803       0.09992186       0.35782752      -0.67385373      -1.27179182      -2.17252522
Pb       6.35400526      16.49282554       1.16540916      -0.02610932      -0.05293776       0.10112352       0.01178064       1.78665645       0.15701129
I       24.61254990      19.73899755       8.02313639       0.07646094      -0.34304015      -0.12487377      -0.18218757      -1.20600207       0.80788090
I        5.97186762       0.95380404       6.80154567      -0.07389721      -0.28029995      -0.03212063      -1.45727718      -0.53609178       1.07968643
I       13.16127374       1.01792054       6.68680757      -0.05755000       0.16382720       0.11457307      -0.78045155      -0.56177387       0.42866746
I        7.08616728      19.43884494       8.24497003      -0.12873038       0.37182453      -0.14843111      -0.32734253      -1.82717831       0.63578593
I        9.64613802      23.66461572       7.93408503      -0.11105367      -0.12592574      -0.00669602       0.91999854       1.60735369      -0.71478806
I        3.13246886       4.22332484       7.91627265       0.06881610       0.26695459       0.01759371       0.56449404       1.22058193       0.08617324
I        3.39416621      22.09147563       6.74671562      -0.28644838       0.13012709       0.15002985       0.66732350       0.58486328      -0.55039025
I        9.44411110      15.81250265       6.82042632       0.17445075       0.10910753      -0.00305195       0.43985141      -0.96418241      -0.67185217
I       12.14934556       1.06518644       1.71612173       0.07974494       0.04033578       0.05172788       0.09651849      -0.23274613       0.59450376
I        5.63023783      19.58771554       0.30655901       0.12725717      -0.02039365       0.09374085       0.45022540      -0.02732203       0.99809563
I        0.49557649      19.30709742      12.62724450       0.12583846       0.12669281       0.09828874       0.88576351      -1.58847626      -1.21532990
I        6.93103238       0.56170750      14.47137843      -0.11664259       0.07897749      -0.03645771       0.01045300       0.55200092      -0.08162768
I        3.41097206      22.99227366      14.56569882      -0.28235638      -0.13246980      -0.15022295      -0.93369552      -1.61932677       0.15413028
I        9.44127795      16.70484583      14.21764653       0.09594607      -0.03229995      -0.09907423      -0.13046818       0.91885448      -1.20278083
I        9.51359494      22.27271215       0.56572503       0.27371348      -0.04862400      -0.01099234      -0.64954939       0.85090601       0.85081611
I        3.02926848       3.92659708       0.76151791       0.14764782      -0.14283004      -0.06767129       1.04656284      -2.91106894      -0.29208562
I       24.38999181       3.51900658      10.40761838       0.18238251      -0.16705343       0.07373251      -0.95133135      -1.10254934      -0.95916474
I        5.88355892      23.19588760      10.58523062      -0.04073368       0.01938117      -0.30882917       1.24927569       0.09242291       1.26118149
I       13.09747787      17.30066191       4.19934839      -0.06134055      -0.01055148       0.09289286       0.72436502       0.32132296      -0.23133889
I        6.98436270      21.67662167       4.18614786      -0.06328401       0.24552110       0.40587239      -1.64646276      -0.82138197      -1.35651160
I       24.69592801      22.12192726       4.16893251       0.02299476      -0.05345274      -0.03596796      -2.22293505      -0.16285314       1.03142870
I        5.77008958       4.81487276       4.46033488       0.07926742      -0.04248970       0.00911997       0.87284269       2.54007644      -2.53303833
I       13.60172107      23.13914997      10.43890612      -0.14375551       0.04850723       0.06154430       0.41704605      -0.64645575       0.11529643
I        6.86440341      15.46960286      10.55197424       0.00220339       0.01118744      -0.15776551       2.36233746       0.52897540       0.91174637
Cs       9.74634406      -0.00177059      16.99515852      -0.13012407      -0.05475664      -0.00903070      -1.74849310      -1.71039716       0.19876667
Cs       3.31041279      19.48869189      16.13907558      -0.01964635       0.07895465      -0.10147025      -0.56522239      -1.54225557       1.01687492
Cs       3.35034401      19.66257476      22.42023512      -0.02782789      -0.09943124      -0.09825035      -0.75211883      -1.51064322      -1.38491705
Cs       9.76992471       0.16766762      24.03471739      -0.16332955      -0.03675068      -0.07837750       0.16335126      -0.99588521      -0.73523957
Cs       9.60542687      18.20804390      23.14627245      -0.03334054       0.05797988       0.19681996      -0.55585306      -0.57426598       1.16311929
Cs       3.17211366       0.70598528      22.24575670       0.18299647       0.10539169       0.15118839       1.32579871      -1.29561359      -1.22149611
Cs       3.18764836       1.54310291      16.58837770       0.14191976      -0.02997304      -0.03872426      -2.69938861       0.58273984      -0.51148403
Cs       9.58928642      18.85259601      17.34590884       0.10211001      -0.00964996       0.00211936       0.06636253      -1.75232803      -1.75702636
Pb      25.25788167      16.11933959      19.70191854      -0.18037079       0.08370809      -0.02124001      -0.49217226       1.57729307      -1.21633037
Pb       6.43065954      22.26621889      19.86065076       0.16262594       0.02394094      -0.23323799       0.15682909      -0.61415343       0.27361657
Pb      25.19350763      22.41625405      19.77265511       0.23040348      -0.22545668      -0.32997746      -1.37831534      -2.66675102       0.45670481
Pb       6.53032319      16.10191515      19.78699481      -0.06050425      -0.18954063       0.07022208       1.15021169       0.84233192       1.12522924
Pb       0.13195655      16.34722124      13.63856698      -0.20573171      -0.15828455      -0.07447508       0.94138886      -0.33436846      -4.88844348
Pb       6.47176601      22.16487316      13.60346310      -0.06441068       0.19387076       0.11852131       0.45196848       0.58976007      -0.57530145
Pb       0.28040435      22.33836051      13.50900885       0.00040803       0.09992186       0.35782752      -0.67385373      -1.27179182      -2.17252522
Pb       6.41624056      16.10373144      13.57405103      -0.02610932      -0.05293776       0.10112352       0.01178064       1.78665645       0.15701129
I       24.67478520      19.34990345      20.43177826       0.07646094      -0.34304015      -0.12487377      -0.18218757      -1.20600207       0.80788090
I        6.03410292       0.56470994      19.21018754      -0.07389721      -0.28029995      -0.03212063      -1.45727718      -0.53609178       1.07968643
I       13.22350904       0.62882644      19.09544944      -0.05755000       0.16382720       0.11457307      -0.78045155      -0.56177387       0.42866746
I        7.14840258      19.04975084      20.65361190      -0.12873038       0.37182453      -0.14843111      -0.32734253      -1.82717831       0.63578593
I        9.70837332      23.27552162      20.34272690      -0.11105367      -0.12592574      -0.00669602       0.91999854       1.60735369      -0.71478806
I        3.19470416       3.83423074      20.32491452       0.06881610       0.26695459       0.01759371       0.56449404       1.22058193       0.08617324
I        3.45640151      21.70238153      19.15535749      -0.28644838       0.13012709       0.15002985       0.66732350       0.58486328      -0.55039025
I        9.50634640      15.42340855      19.22906819       0.17445075       0.10910753      -0.00305195       0.43985141      -0.96418241      -0.67185217
I       12.21158086       0.67609234      14.12476360       0.07974494       0.04033578       0.05172788       0.09651849      -0.23274613       0.59450376
I        5.69247313      19.19862144      12.71520088       0.12725717      -0.02039365       0.09374085       0.45022540      -0.02732203       0.99809563
I        0.43334119      19.69619152       0.21860263       0.12583846       0.12669281       0.09828874       0.88576351      -1.58847626      -1.21532990
I        6.86879708       0.95080160       2.06273656      -0.11664259       0.07897749      -0.03645771       0.01045300       0.55200092      -0.08162768
I        3.34873676      23.38136776       2.15705695      -0.28235638      -0.13246980      -0.15022295      -0.93369552      -1.61932677       0.15413028
I        9.37904265      17.09393993       1.80900466       0.09594607      -0.03229995      -0.09907423      -0.13046818       0.91885448      -1.20278083
I        9.57583024      21.88361805      12.97436690       0.27371348      -0.04862400      -0.01099234      -0.64954939       0.85090601       0.85081611
I        3.09150378       3.53750298      13.17015978       0.14764782      -0.14283004      -0.06767129       1.04656284      -2.91106894      -0.29208562
I       24.45222711       3.12991248      22.81626025       0.18238251      -0.16705343       0.07373251      -0.95133135      -1.10254934      -0.95916474
I        5.94579422      22.80679350      22.99387249      -0.04073368       0.01938117      -0.30882917       1.24927569       0.09242291       1.26118149
I       13.15971317      16.91156781      16.60799026      -0.06134055      -0.01055148       0.09289286       0.72436502       0.32132296      -0.23133889
I        7.04659800      21.28752757      16.59478973      -0.06328401       0.24552110       0.40587239      -1.64646276      -0.82138197      -1.35651160
I       24.75816331      21.73283316      16.57757438       0.02299476      -0.05345274      -0.03596796      -2.22293505      -0.16285314       1.03142870
I        5.83232488       4.42577866      16.86897675       0.07926742      -0.04248970       0.00911997       0.87284269       2.54007644      -2.53303833
I       13.66395637      22.75005587      22.84754799      -0.14375551       0.04850723       0.06154430       0.41704605      -0.64645575       0.11529643
I        6.92663871      15.08050876      22.96061611       0.00220339       0.01118744      -0.15776551       2.36233746       0.52897540       0.91174637
Cs      22.28099820      12.77011244       4.41383279      -0.13012407      -0.05475664      -0.00903070      -1.74849310      -1.71039716       0.19876667
Cs      15.77314275       7.43522254       3.77354289      -0.01964635       0.07895465      -0.10147025      -0.56522239      -1.54225557       1.01687492
Cs      15.81307397       7.60910541      10.05470243      -0.02782789      -0.09943124      -0.09825035      -0.75211883      -1.51064322      -1.38491705
Cs      22.30457885      12.93955065      11.45339166      -0.16332955      -0.03675068      -0.07837750       0.16335126      -0.99588521      -0.73523957
Cs      22.06815683       6.15457455      10.78073976      -0.03334054       0.05797988       0.19681996      -0.55585306      -0.57426598       1.16311929
Cs      15.70676780      13.47786831       9.66443097       0.18299647       0.10539169       0.15118839       1.32579871      -1.29561359      -1.22149611
Cs      15.72230250      14.31498594       4.00705197       0.14191976      -0.02997304      -0.03872426      -2.69938861       0.58273984      -0.51148403
Cs      22.05201638       6.79912666       4.98037615       0.10211001      -0.00964996       0.00211936       0.06636253      -1.75232803      -1.75702636
Pb      12.59875693       4.12564476       7.46596054      -0.18037079       0.08370809      -0.02124001      -0.49217226       1.57729307      -1.21633037
Pb      18.89338950      10.21274954       7.49511807       0.16262594       0.02394094      -0.23323799       0.15682909      -0.61415343       0.27361657
Pb      12.53438289      10.42255922       7.53669711       0.23040348      -0.22545668      -0.32997746      -1.37831534      -2.66675102       0.45670481
Pb      18.99305315       4.04844580       7.42146212      -0.06050425      -0.18954063       0.07022208       1.15021169       0.84233192       1.12522924
Pb      12.59468651       4.29375189       1.27303429      -0.20573171      -0.15828455      -0.07447508       0.94138886      -0.33436846      -4.88844348
Pb      18.93449597      10.11140381       1.23793041      -0.06441068       0.19387076       0.11852131       0.45196848       0.58976007      -0.57530145
Pb      12.74313431      10.28489116       1.14347616       0.00040803       0.09992186       0.35782752      -0.67385373      -1.27179182      -2.17252522
Pb      18.87897052       4.05026209       1.20851834      -0.02610932      -0.05293776       0.10112352       0.01178064       1.78665645       0.15701129
I       12.01566046       7.35620862       8.19582026       0.07646094      -0.34304015      -0.12487377      -0.18218757      -1.20600207       0.80788090
I       18.56875706      13.33659297       6.62886181      -0.07389721      -0.28029995      -0.03212063      -1.45727718      -0.53609178       1.07968643
I        0.63630848      13.46048399       6.64369839      -0.05755000       0.16382720       0.11457307      -0.78045155      -0.56177387       0.42866746
I       19.61113254       6.99628149       8.28807921      -0.12873038       0.37182453      -0.14843111      -0.32734253      -1.82717831       0.63578593
I       22.17110328      11.22205227       7.97719421      -0.11105367      -0.12592574      -0.00669602       0.91999854       1.60735369      -0.71478806
I       15.72935830      16.60611377       7.74358879       0.06881610       0.26695459       0.01759371       0.56449404       1.22058193       0.08617324
I       15.91913147       9.64891218       6.78982480      -0.28644838       0.13012709       0.15002985       0.66732350       0.58486328      -0.55039025
I       21.96907636       3.36993920       6.86353550       0.17445075       0.10910753      -0.00305195       0.43985141      -0.96418241      -0.67185217
I       24.74623500      13.44797537       1.54343787       0.07974494       0.04033578       0.05172788       0.09651849      -0.23274613       0.59450376
I       18.15520309       7.14515209       0.34966819       0.12725717      -0.02039365       0.09374085       0.45022540      -0.02732203       0.99809563
I       13.02054175       6.86453397      12.67035368       0.12583846       0.12669281       0.09828874       0.88576351      -1.58847626      -1.21532990
I       19.52792182      12.94449643      14.29869457      -0.11664259       0.07897749      -0.03645771       0.01045300       0.55200092      -0.08162768
I       15.93593732      10.54971021      14.60880800      -0.28235638      -0.13246980      -0.15022295      -0.93369552      -1.61932677       0.15413028
I       21.96624321       4.26228238      14.26075571       0.09594607      -0.03229995      -0.09907423      -0.13046818       0.91885448      -1.20278083