320
Lattice="31.392636507215773 -0.04481615214523286 0.09492011689125937 0.1392903615087138 28.887165468702893 0.25788863917263216 -0.2799812260619887 -0.14238296324623026 16.953981605175922" Properties=species:S:1:pos:R:3:forces:R:3:momenta:R:3 pbc="T T T"
Cs       1.73876615       3.36078884       3.71375134       0.02396096      -0.03023921       0.04531426      -0.35278863      -0.32775523       1.66673130
Cs       5.07322720       5.09704844       8.06161570       0.06200827       0.11877890       0.03154921      -0.27625227       0.99252179      -0.99938926
Cs       1.30440012      10.22164366      16.73692351      -0.10058873       0.04224278      -0.03540476      -0.41333775       0.96347328      -0.75664213
Cs       5.17121033      12.61298419       4.28167075       0.20616579       0.12214305      -0.11454080       1.70565764       1.84684923      -2.23068659
Cs       9.24349669       3.22183535       4.16481014      -0.07161127       0.00761282      -0.06377532       0.31621988      -1.90110475       1.61165468
Cs      13.17832554       5.42522746       8.20403225       0.04850061       0.09742015       0.07776513      -0.59696132      -1.00096936       1.92844108
Cs       9.60509871      10.18501776      16.89560117      -0.09228808      -0.13547619      -0.06159802       0.41378332      -2.29916313       2.10947984
Cs      12.81643614      13.39771433       4.08999693       0.06038150      -0.17436690      -0.00879569       0.21067206      -0.23881581       0.41286223
Pb       3.05985189      15.10635708       8.21839408       0.29041925      -0.08752225       0.09796146      -0.88069427      -2.16643639       0.96268468
Pb       7.14176664      14.91279936       8.26189815      -0.64822572      -0.01513483       0.28447618       2.70309629      -0.47088774       0.12063784
Pb       3.91108516       8.06446059       3.79686574       0.07529598       0.02252917       0.26778165       1.87422674      -0.69469888      -0.37119594
Pb       0.04924593       8.08218787       4.02124906      -0.34938771       0.02394660       0.19594768      -0.58036544      -3.61511627      -1.66049209
Pb      10.87152389      15.26501859       8.38112992       0.11163716      -0.02124704       0.18466191      -2.40795714      -1.85802995      -0.67406523
Pb      14.89592263      15.33234232       8.29442334      -0.25471010       0.01247393       0.23266628      -2.15838283       0.48965049       0.53628293
Pb      11.69307580       7.80325138       4.16254468       0.07651373       0.09483928      -0.07422577       2.14424194       1.83863913      -2.38978962
Pb       7.74296995       7.96931381       3.90517936       0.36563712      -0.07664031       0.20288265      -0.05391735      -0.85383086      -2.50934259
I        5.04002122       2.04735220       1.80712178       0.02250456      -0.02027372      -0.13252387      -0.60797931       0.89843186       1.64497559
I        1.69051858       7.01611865       1.63468513       0.28173964      -0.23213335      -0.11387136       3.08014872      -0.74550654      -1.19085932
I        5.11889299       1.46369635       5.66696520      -0.15134452       0.11596791       0.09427248       1.97993946      -2.19065897       0.99534749
I        2.27472660       6.70848836       6.20385833      -0.13546306       0.08441038      -0.22967669       0.16764979       1.66725080      -1.68852323
I        5.79865570       5.45588103       4.07907091       0.02085035      -0.19520160      -0.03109451       3.31418701       1.15192770      -0.81338438
I        1.12792367       3.36944963       7.91908401      -0.08696674       0.11405923       0.08579612       0.67637103       0.02079883      -1.43984581
I        5.94745032       9.43662218       6.01778973      -0.04568835      -0.09731025      -0.11437931      -1.30021341       1.90041661      -1.64221345
I        1.00300854      14.11792548       6.00631358      -0.27591427      -0.11451189      -0.10035344       0.34288648       1.08116429      -1.65736869
I        6.01804865       8.92484821       1.45144750       0.03097146       0.15240416       0.00727338       0.40617820       1.38806214      -0.79330005
I        1.09541145      13.97940713       1.99822152      -0.04675395       0.11486104      -0.09920768       0.90913336      -0.57912466      -0.76803481
I        4.75609620      12.39796191       8.36898069       0.06612608       0.24418221       0.05442079       0.42318049       0.37195288      -2.91363257
I        2.02078731      10.62048592       4.09356393       0.02763800       0.11709544      -0.01935046      -0.69026968      -0.71198917       0.86631728
I       12.66482344       2.35952964       2.01614967       0.22852332      -0.15200816      -0.35810043      -0.80347013      -1.33869235      -1.99766664
I        9.92431192       6.36095034       1.92496419      -0.03754582       0.09996918       0.02468367      -0.42409169      -1.89708281       1.02261052
I       12.65234336       2.21176981       6.04913650      -0.03530478      -0.07836361       0.04620791       0.26995788      -0.23011493      -0.41148755
I        9.71081040       6.63534100       6.42154886      -0.02800069       0.11888241      -0.25522072       0.17829042      -1.73073956       0.87885074
I       13.99726334       5.40917130       4.10683974      -0.01546723       0.02388604       0.01267201      -0.79339841       0.51584534      -1.23791200
I        8.58880934       3.21129560       8.34228587      -0.01384387       0.01760431      -0.06809953       0.66956830       0.84675647      -0.12302724
I       13.61873770       9.23436644       6.20833722       0.11220596       0.11162715       0.36577370      -0.82375215       0.50750295      -0.07777043
I        8.95243922      13.86668953       6.10947164       0.12573979      -0.14943202      -0.21772103       1.45777328       0.18448466       1.37824379
I       13.74430484       9.34178981       2.02276400      -0.04357966      -0.04332062      -0.04740322       0.75965369      -2.34979939       0.13186848
I        9.03301787      13.79878156       2.10348239       0.10178879       0.00858466      -0.01239071      -0.57890238       0.53815385       0.21026712
I       12.83306275      12.77118432       8.47151236       0.05484984      -0.02209063      -0.06987231      -1.61840846      -0.17848779       1.20107727
I        9.89157304      10.49075037       4.16588048       0.03922638      -0.22024823      -0.08450083      -1.58924862      -0.65965130      -1.49334896
Cs       1.59877554       3.28959736      12.19074214       0.02396096      -0.03023921       0.04531426      -0.35278863      -0.32775523       1.66673130
Cs       4.93323659       5.02585696      16.53860650       0.06200827       0.11877890       0.03154921      -0.27625227       0.99252179      -0.99938926
Cs       1.44439074      10.29283514       8.25993270      -0.10058873       0.04224278      -0.03540476      -0.41333775       0.96347328      -0.75664213
Cs       5.03121972      12.54179271      12.75866155       0.20616579       0.12214305      -0.11454080       1.70565764       1.84684923      -2.23068659
Cs       9.10350608       3.15064387      12.64180094      -0.07161127       0.00761282      -0.06377532       0.31621988      -1.90110475       1.61165468
Cs      13.03833493       5.35403598      16.68102305       0.04850061       0.09742015       0.07776513      -0.59696132      -1.00096936       1.92844108
Cs       9.74508933      10.25620924       8.41861036      -0.09228808      -0.13547619      -0.06159802       0.41378332      -2.29916313       2.10947984
Cs      12.67644553      13.32652285      12.56698773       0.06038150      -0.17436690      -0.00879569       0.21067206      -0.23881581       0.41286223
Pb       2.91986128      15.03516560      16.69538488       0.29041925      -0.08752225       0.09796146      -0.88069427      -2.16643639       0.96268468
Pb       7.00177603      14.84160788      16.73888895      -0.64822572      -0.01513483       0.28447618       2.70309629      -0.47088774       0.12063784
Pb       3.77109455       7.99326911      12.27385654       0.07529598       0.02252917       0.26778165       1.87422674      -0.69469888      -0.37119594
Pb      -0.09074468       8.01099639      12.49823986      -0.34938771       0.02394660       0.19594768      -0.58036544      -3.61511627      -1.66049209
Pb      10.73153328      15.19382711      16.85812072       0.11163716      -0.02124704       0.18466191      -2.40795714      -1.85802995      -0.67406523
Pb      14.75593202      15.26115084      16.77141414      -0.25471010       0.01247393       0.23266628      -2.15838283       0.48965049       0.53628293
Pb      11.55308519       7.73205990      12.63953548       0.07651373       0.09483928      -0.07422577       2.14424194       1.83863913      -2.38978962
Pb       7.60297934       7.89812233      12.38217016       0.36563712      -0.07664031       0.20288265      -0.05391735      -0.85383086      -2.50934259
I        4.90003061       1.97616072      10.28411258       0.02250456      -0.02027372      -0.13252387      -0.60797931       0.89843186       1.64497559
I        1.55052797       6.94492717      10.11167593       0.28173964      -0.23213335      -0.11387136       3.08014872      -0.74550654      -1.19085932
I        4.97890238       1.39250487      14.14395600      -0.15134452       0.11596791       0.09427248       1.97993946      -2.19065897       0.99534749
I        2.13473599       6.63729688      14.68084913      -0.13546306       0.08441038      -0.22967669       0.16764979       1.66725080      -1.68852323
I        5.65866509       5.38468955      12.55606171       0.02085035      -0.19520160      -0.03109451       3.31418701       1.15192770      -0.81338438
I        0.98793306       3.29825815      16.39607481      -0.08696674       0.11405923       0.08579612       0.67637103       0.02079883      -1.43984581
I        5.80745971       9.36543070      14.49478053      -0.04568835      -0.09731025      -0.11437931      -1.30021341       1.90041661      -1.64221345
I        0.86301793      14.04673400      14.48330438      -0.27591427      -0.11451189      -0.10035344       0.34288648       1.08116429      -1.65736869
I        5.87805804       8.85365673       9.92843830       0.03097146       0.15240416       0.00727338       0.40617820       1.38806214      -0.79330005
I        0.95542084      13.90821565      10.47521232      -0.04675395       0.11486104      -0.09920768       0.90913336      -0.57912466      -0.76803481
I        4.61610559      12.32677043      16.84597149       0.06612608       0.24418221       0.05442079       0.42318049       0.37195288      -2.91363257
I        1.88079670      10.54929444      12.57055473       0.02763800       0.11709544      -0.01935046      -0.69026968      -0.71198917       0.86631728
I       12.52483283       2.28833816      10.49314047       0.22852332      -0.15200816      -0.35810043      -0.80347013      -1.33869235      -1.99766664
I        9.78432131       6.28975886      10.40195499      -0.03754582       0.09996918       0.02468367      -0.42409169      -1.89708281       1.02261052
I       12.51235275       2.14057833      14.52612730      -0.03530478      -0.07836361       0.04620791       0.26995788      -0.23011493      -0.41148755
I        9.57081979       6.56414952      14.89853966      -0.02800069       0.11888241      -0.25522072       0.17829042      -1.73073956       0.87885074
I       13.85727273       5.33797982      12.58383054      -0.01546723       0.02388604       0.01267201      -0.79339841       0.51584534      -1.23791200
I        8.44881873       3.14010412      16.81927667      -0.01384387       0.01760431      -0.06809953       0.66956830       0.84675647      -0.12302724
I       13.47874709       9.16317496      14.68532802       0.11220596       0.11162715       0.36577370      -0.82375215       0.50750295      -0.07777043
I        8.81244861      13.79549805      14.58646244       0.12573979      -0.14943202      -0.21772103       1.45777328       0.18448466       1.37824379
I       13.60431423       9.27059833      10.49975480      -0.04357966      -0.04332062      -0.04740322       0.75965369      -2.34979939       0.13186848
I        8.89302726      13.72759008      10.58047319       0.10178879       0.00858466      -0.01239071      -0.57890238       0.53815385       0.21026712
I       12.69307214      12.69999284      16.94850316       0.05484984      -0.02209063      -0.06987231      -1.61840846      -0.17848779       1.20107727
I        9.75158243      10.41955889      12.64287128       0.03922638      -0.22024823      -0.08450083      -1.58924862      -0.65965130      -1.49334896
Cs       1.80841133      17.80437157       3.84269566       0.02396096      -0.03023921       0.04531426      -0.35278863      -0.32775523       1.66673130
Cs       5.14287238      19.54063117       8.19056002       0.06200827       0.11877890       0.03154921      -0.27625227       0.99252179      -0.99938926
Cs       1.37404530      24.66522639      16.86586782      -0.10058873       0.04224278      -0.03540476      -0.41333775       0.96347328      -0.75664213
Cs       5.24085551      27.05656692       4.41061507       0.20616579       0.12214305      -0.11454080       1.70565764       1.84684923      -2.23068659
Cs       9.31314187      17.66541808       4.29375446      -0.07161127       0.00761282      -0.06377532       0.31621988      -1.90110475       1.61165468
Cs      13.24797072      19.86881019       8.33297657       0.04850061       0.09742015       0.07776513      -0.59696132      -1.00096936       1.92844108
Cs       9.67474389      24.62860049      17.02454548      -0.09228808      -0.13547619      -0.06159802       0.41378332      -2.29916313       2.10947984
Cs      12.88608132      27.84129706       4.21894125       0.06038150      -0.17436690      -0.00879569       0.21067206      -0.23881581       0.41286223
Pb       2.99020671       0.66277435       8.08944976       0.29041925      -0.08752225       0.09796146      -0.88069427      -2.16643639       0.96268468
Pb       7.07212146       0.46921663       8.13295383      -0.64822572      -0.01513483       0.28447618       2.70309629      -0.47088774       0.12063784
Pb       3.98073034      22.50804332       3.92581006       0.07529598       0.02252917       0.26778165       1.87422674      -0.69469888      -0.37119594
Pb       0.11889111      22.52577060       4.15019338      -0.34938771       0.02394660       0.19594768      -0.58036544      -3.61511627      -1.66049209
Pb      10.80187871       0.82143586       8.25218560       0.11163716      -0.02124704       0.18466191      -2.40795714      -1.85802995      -0.67406523
Pb      14.82627745       0.88875959       8.16547902      -0.25471010       0.01247393       0.23266628      -2.15838283       0.48965049       0.53628293
Pb      11.76272098      22.24683411       4.29148900       0.07651373       0.09483928      -0.07422577       2.14424194       1.83863913      -2.38978962
Pb       7.81261513      22.41289654       4.03412368       0.36563712      -0.07664031       0.20288265      -0.05391735      -0.85383086      -2.50934259
I        5.10966640      16.49093493       1.93606610       0.02250456      -0.02027372      -0.13252387      -0.60797931       0.89843186       1.64497559
I        1.76016376      21.45970138       1.76362945       0.28173964      -0.23213335      -0.11387136       3.08014872      -0.74550654      -1.19085932
I        5.18853817      15.90727908       5.79590952      -0.15134452       0.11596791       0.09427248       1.97993946      -2.19065897       0.99534749
I        2.34437178      21.15207109       6.33280265      -0.13546306       0.08441038      -0.22967669       0.16764979       1.66725080      -1.68852323
I        5.86830088      19.89946376       4.20801523       0.02085035      -0.19520160      -0.03109451       3.31418701       1.15192770      -0.81338438
I        1.19756885      17.81303236       8.04802833      -0.08696674       0.11405923       0.08579612       0.67637103       0.02079883      -1.43984581
I        6.01709550      23.88020491       6.14673405      -0.04568835      -0.09731025      -0.11437931      -1.30021341       1.90041661      -1.64221345
I        1.07265372      28.56150821       6.13525790      -0.27591427      -0.11451189      -0.10035344       0.34288648       1.08116429      -1.65736869
I        6.08769383      23.36843094       1.58039182       0.03097146       0.15240416       0.00727338       0.40617820       1.38806214      -0.79330005
I        1.16505663      28.42298986       2.12716584      -0.04675395       0.11486104      -0.09920768       0.90913336      -0.57912466      -0.76803481
I        4.82574138      26.84154464       8.49792501       0.06612608       0.24418221       0.05442079       0.42318049       0.37195288      -2.91363257
I        2.09043249      25.06406865       4.22250825       0.02763800       0.11709544      -0.01935046      -0.69026968      -0.71198917       0.86631728
I       12.73446862      16.80311237       2.14509399       0.22852332      -0.15200816      -0.35810043      -0.80347013      -1.33869235      -1.99766664
I        9.99395710      20.80453307       2.05390851      -0.03754582       0.09996918       0.02468367      -0.42409169      -1.89708281       1.02261052
I       12.72198854      16.65535254       6.17808082      -0.03530478      -0.07836361       0.04620791       0.26995788      -0.23011493      -0.41148755
I        9.78045558      21.07892373       6.55049318      -0.02800069       0.11888241      -0.25522072       0.17829042      -1.73073956       0.87885074
I       14.06690852      19.85275403       4.23578406      -0.01546723       0.02388604       0.01267201      -0.79339841       0.51584534      -1.23791200
I        8.65845452      17.65487833       8.47123019      -0.01384387       0.01760431      -0.06809953       0.66956830       0.84675647      -0.12302724
I       13.68838288      23.67794917       6.33728154       0.11220596       0.11162715       0.36577370      -0.82375215       0.50750295      -0.07777043
I        9.02208440      28.31027226       6.23841596       0.12573979      -0.14943202      -0.21772103       1.45777328       0.18448466       1.37824379
I       13.81395002      23.78537254       2.15170832      -0.04357966      -0.04332062      -0.04740322       0.75965369      -2.34979939       0.13186848
I        9.10266305      28.24236429       2.23242671       0.10178879       0.00858466      -0.01239071      -0.57890238       0.53815385       0.21026712
I       12.90270793      27.21476705       8.60045668       0.05484984      -0.02209063      -0.06987231      -1.61840846      -0.17848779       1.20107727
I        9.96121822      24.93433310       4.29482480       0.03922638      -0.22024823      -0.08450083      -1.58924862      -0.65965130      -1.49334896
Cs       1.66842072      17.73318009      12.31968646       0.02396096      -0.03023921       0.04531426      -0.35278863      -0.32775523       1.66673130
Cs       5.00288177      19.46943969      16.66755082       0.06200827       0.11877890       0.03154921      -0.27625227       0.99252179      -0.99938926
Cs       1.51403592      24.73641787       8.38887702      -0.10058873       0.04224278      -0.03540476      -0.41333775       0.96347328      -0.75664213
Cs       5.10086490      26.98537544      12.88760587       0.20616579       0.12214305      -0.11454080       1.70565764       1.84684923      -2.23068659
Cs       9.17315126      17.59422660      12.77074526      -0.07161127       0.00761282      -0.06377532       0.31621988      -1.90110475       1.61165468
Cs      13.10798011      19.79761871      16.80996737       0.04850061       0.09742015       0.07776513      -0.59696132      -1.00096936       1.92844108
Cs       9.81473451      24.69979197       8.54755468      -0.09228808      -0.13547619      -0.06159802       0.41378332      -2.29916313       2.10947984
Cs      12.74609071      27.77010558      12.69593205       0.06038150      -0.17436690      -0.00879569       0.21067206      -0.23881581       0.41286223
Pb       2.85021610       0.59158286      16.56644056       0.29041925      -0.08752225       0.09796146      -0.88069427      -2.16643639       0.96268468
Pb       6.93213085       0.39802514      16.60994463      -0.64822572      -0.01513483       0.28447618       2.70309629      -0.47088774       0.12063784
Pb       3.84073973      22.43685184      12.40280086       0.07529598       0.02252917       0.26778165       1.87422674      -0.69469888      -0.37119594
Pb      -0.02109950      22.45457912      12.62718418      -0.34938771       0.02394660       0.19594768      -0.58036544      -3.61511627      -1.66049209
Pb      10.66188810       0.75024437      16.72917640       0.11163716      -0.02124704       0.18466191      -2.40795714      -1.85802995      -0.67406523
Pb      14.68628684       0.81756810      16.64246982      -0.25471010       0.01247393       0.23266628      -2.15838283       0.48965049       0.53628293
Pb      11.62273037      22.17564263      12.76847980       0.07651373       0.09483928      -0.07422577       2.14424194       1.83863913      -2.38978962
Pb       7.67262452      22.34170506      12.51111448       0.36563712      -0.07664031       0.20288265      -0.05391735      -0.85383086      -2.50934259
I        4.96967579      16.41974345      10.41305690       0.02250456      -0.02027372      -0.13252387      -0.60797931       0.89843186       1.64497559
I        1.62017315      21.38850990      10.24062025       0.28173964      -0.23213335      -0.11387136       3.08014872      -0.74550654      -1.19085932
I        5.04854756      15.83608760      14.27290032      -0.15134452       0.11596791       0.09427248       1.97993946      -2.19065897       0.99534749
I        2.20438117      21.08087961      14.80979345      -0.13546306       0.08441038      -0.22967669       0.16764979       1.66725080      -1.68852323
I        5.72831027      19.82827228      12.68500603       0.02085035      -0.19520160      -0.03109451       3.31418701       1.15192770      -0.81338438
I        1.05757824      17.74184088      16.52501913      -0.08696674       0.11405923       0.08579612       0.67637103       0.02079883      -1.43984581
I        5.87710489      23.80901343      14.62372485      -0.04568835      -0.09731025      -0.11437931      -1.30021341       1.90041661      -1.64221345
I        0.93266311      28.49031673      14.61224870      -0.27591427      -0.11451189      -0.10035344       0.34288648       1.08116429      -1.65736869
I        5.94770322      23.29723946      10.05738262       0.03097146       0.15240416       0.00727338       0.40617820       1.38806214      -0.79330005
I        1.02506602      28.35179838      10.60415664      -0.04675395       0.11486104      -0.09920768       0.90913336      -0.57912466      -0.76803481
I        4.68575077      26.77035316      16.97491581       0.06612608       0.24418221       0.05442079       0.42318049       0.37195288      -2.91363257
I        1.95044188      24.99287717      12.69949905       0.02763800       0.11709544      -0.01935046      -0.69026968      -0.71198917       0.86631728
I       12.59447801      16.73192089      10.62208479       0.22852332      -0.15200816      -0.35810043      -0.80347013      -1.33869235      -1.99766664
I        9.85396649      20.73334159      10.53089931      -0.03754582       0.09996918       0.02468367      -0.42409169      -1.89708281       1.02261052
I       12.58199793      16.58416106      14.65507162      -0.03530478      -0.07836361       0.04620791       0.26995788      -0.23011493      -0.41148755
I        9.64046497      21.00773225      15.02748398      -0.02800069       0.11888241      -0.25522072       0.17829042      -1.73073956       0.87885074
I       13.92691791      19.78156255      12.71277486      -0.01546723       0.02388604       0.01267201      -0.79339841       0.51584534      -1.23791200
I        8.51846391      17.58368685      16.94822099      -0.01384387       0.01760431      -0.06809953       0.66956830       0.84675647      -0.12302724
I       13.54839227      23.60675769      14.81427234       0.11220596       0.11162715       0.36577370      -0.82375215       0.50750295      -0.07777043
I        8.88209379      28.23908078      14.71540676       0.12573979      -0.14943202      -0.21772103       1.45777328       0.18448466       1.37824379
I       13.67395941      23.71418106      10.62869912      -0.04357966      -0.04332062      -0.04740322       0.75965369      -2.34979939       0.13186848
I        8.96267244      28.17117281      10.70941751       0.10178879       0.00858466      -0.01239071      -0.57890238       0.53815385       0.21026712
I       12.76271732      27.14357557      17.07744748       0.05484984      -0.02209063      -0.06987231      -1.61840846      -0.17848779       1.20107727
I        9.82122761      24.86314162      12.77181560       0.03922638      -0.22024823      -0.08450083      -1.58924862      -0.65965130      -1.49334896
Cs      17.43508440       3.33838076       3.76121140       0.02396096      -0.03023921       0.04531426      -0.35278863      -0.32775523       1.66673130
Cs      20.76954545       5.07464036       8.10907576       0.06200827       0.11877890       0.03154921      -0.27625227       0.99252179      -0.99938926
Cs      17.00071838      10.19923558      16.78438356      -0.10058873       0.04224278      -0.03540476      -0.41333775       0.96347328      -0.75664213
Cs      20.86752858      12.59057611       4.32913081       0.20616579       0.12214305      -0.11454080       1.70565764       1.84684923      -2.23068659
Cs      24.93981494       3.19942727       4.21227020      -0.07161127       0.00761282      -0.06377532       0.31621988      -1.90110475       1.61165468
Cs      28.87464379       5.40281938       8.25149231       0.04850061       0.09742015       0.07776513      -0.59696132      -1.00096936       1.92844108
Cs      25.30141697      10.16260968      16.94306122      -0.09228808      -0.13547619      -0.06159802       0.41378332      -2.29916313       2.10947984
Cs      28.51275439      13.37530625       4.13745699       0.06038150      -0.17436690      -0.00879569       0.21067206      -0.23881581       0.41286223
Pb      18.75617014      15.08394900       8.26585414       0.29041925      -0.08752225       0.09796146      -0.88069427      -2.16643639       0.96268468
Pb      22.83808489      14.89039128       8.30935821      -0.64822572      -0.01513483       0.28447618       2.70309629      -0.47088774       0.12063784
Pb      19.60740341       8.04205251       3.84432580       0.07529598       0.02252917       0.26778165       1.87422674      -0.69469888      -0.37119594
Pb      15.74556418       8.05977979       4.06870912      -0.34938771       0.02394660       0.19594768      -0.58036544      -3.61511627      -1.66049209
Pb      26.56784214      15.24261051       8.42858998       0.11163716      -0.02124704       0.18466191      -2.40795714      -1.85802995      -0.67406523
Pb      30.59224088      15.30993424       8.34188340      -0.25471010       0.01247393       0.23266628      -2.15838283       0.48965049       0.53628293
Pb      27.38939405       7.78084330       4.21000474       0.07651373       0.09483928      -0.07422577       2.14424194       1.83863913      -2.38978962
Pb      23.43928820       7.94690573       3.95263942       0.36563712      -0.07664031       0.20288265      -0.05391735      -0.85383086      -2.50934259
I       20.73633947       2.02494412       1.85458184       0.02250456      -0.02027372      -0.13252387      -0.60797931       0.89843186       1.64497559
I       17.38683683       6.99371057       1.68214519       0.28173964      -0.23213335      -0.11387136       3.08014872      -0.74550654      -1.19085932
I       20.81521124       1.44128827       5.71442526      -0.15134452       0.11596791       0.09427248       1.97993946      -2.19065897       0.99534749
I       17.97104485       6.68608028       6.25131839      -0.13546306       0.08441038      -0.22967669       0.16764979       1.66725080      -1.68852323
I       21.49497395       5.43347295       4.12653097       0.02085035      -0.19520160      -0.03109451       3.31418701       1.15192770      -0.81338438
I       16.82424192       3.34704155       7.96654407      -0.08696674       0.11405923       0.08579612       0.67637103       0.02079883      -1.43984581
I       21.64376857       9.41421410       6.06524979      -0.04568835      -0.09731025      -0.11437931      -1.30021341       1.90041661      -1.64221345
I       16.69932679      14.09551740       6.05377364      -0.27591427      -0.11451189      -0.10035344       0.34288648       1.08116429      -1.65736869
I       21.71436690       8.90244013       1.49890756       0.03097146       0.15240416       0.00727338       0.40617820       1.38806214      -0.79330005
I       16.79172970      13.95699905       2.04568158      -0.04675395       0.11486104      -0.09920768       0.90913336      -0.57912466      -0.76803481
I       20.45241445      12.37555383       8.41644075       0.06612608       0.24418221       0.05442079       0.42318049       0.37195288      -2.91363257
I       17.71710556      10.59807784       4.14102399       0.02763800       0.11709544      -0.01935046      -0.69026968      -0.71198917       0.86631728
I       28.36114169       2.33712156       2.06360973       0.22852332      -0.15200816      -0.35810043      -0.80347013      -1.33869235      -1.99766664
I       25.62063017       6.33854226       1.97242425      -0.03754582       0.09996918       0.02468367      -0.42409169      -1.89708281       1.02261052