320
Lattice="25.121854697261806 -0.05977452525107978 -0.12957468506993428 0.07192418218408468 24.82535238426277 -0.21579304325525844 0.12447059888337542 -0.778188195725328 24.81728374174729" Properties=species:S:1:pos:R:3:forces:R:3:momenta:R:3 pbc="T T T"
Cs       9.06313102      16.72172868       5.89845805       0.02321619       0.00905184       0.01490817       0.28233584       0.45366920       0.84919518
Cs       2.94811472      11.48978907       5.37659706      -0.10337984       0.11922890      -0.02266008      -1.31487464       0.56920991       1.10283290
Cs       2.80207007      11.37276126      11.78083962      -0.00775159      -0.02040141      -0.12679723       0.17654022       0.79409070       2.12453868
Cs       9.14181579      16.73890429      12.55910276       0.00643006       0.03084698       0.00950986       0.60433281       0.89074459       0.71597034
Cs       9.00040406      10.51076979      12.21311504       0.11254400      -0.17656732       0.10060202      -0.26963400      -2.17299991       0.18727708
Cs       2.64993455      17.24390904      11.38385546      -0.04499245      -0.03157137      -0.09554868       0.55598610       1.60299339       1.67547435
Cs       2.80475190      18.21031888       5.41714896       0.04162912      -0.02843976      -0.03397257      -1.50456863      -1.59204038      -1.10134387
Cs       9.01294592      10.51187973       6.38862647       0.00812933       0.08028240       0.05529671      -0.80224997       0.49470928       1.77305726
Pb      24.70657625       7.61732210       8.58891624      -0.07963249       0.02537294       0.18680236      -2.35099244       0.53432001      -2.92043858
Pb       5.94852519      14.10029627       8.95613765       0.14841344      -0.09505270      -0.04791630       0.15467013      -1.07039061      -0.67561703
Pb      24.66994725      13.84337980       8.71038235       0.03817972       0.17305314      -0.22786445       2.69524448       0.36813664       0.09871673
Pb       5.84886992       7.75973454       9.13335450       0.00870103       0.01944033      -0.15030963       2.11314505      -2.71140815      -1.06783333
Pb      24.76386939       8.15376615       2.45586529      -0.05952285       0.31890951      -0.03030600      -0.42995854       0.74557283      -0.03544600
Pb       6.02758075      14.44769571       2.73441975      -0.38204393      -0.15234248       0.09240313       0.19051537       1.08222476      -0.21659837
Pb      24.72374492      14.52652513       2.50992631       0.33459047      -0.28628231       0.42068692      -0.74508299       2.42804221      -1.24038050
Pb       5.83481989       8.17048361       2.80577548       0.11146722       0.19542853      -0.30552563      -1.05064543       1.56077773      -0.09575923
I       24.21817307      10.92367515       9.38933295       0.00764587      -0.38025264      -0.01340637       0.36742348      -0.58887030       1.99550610
I        5.30804149      17.12323449       8.22364432      -0.00133876      -0.02482650      -0.08178411       1.01889225       0.77767105       1.60978917
I       12.57470318      17.01337302       7.72143933       0.05233643       0.23930108       0.21170065       0.82935017      -0.46829880       0.45717170
I        6.36117736      10.85789489       9.72631483      -0.04931625       0.22181758      -0.14684616       0.30113976      -0.45250835       0.44706447
I        9.17979942      15.00862204       9.14230718      -0.31754928      -0.17462426       0.16147871      -0.21536744       1.49311479       1.50504315
I        2.68777548      20.56974432       9.22542869       0.07455510       0.05170220       0.06741000       0.93338495       1.75784990      -1.18172808
I        2.83359710      13.73556182       8.68431651       0.01441087      -0.07536438      -0.08354893       0.53114713      -0.15048574      -0.47699197
I        8.92631466       7.20101580       8.62211245       0.08651370       0.07742392      -0.11160445      -1.10599424      -0.02814506      -0.42061790
I       11.79110849      17.68636962       3.32567984      -0.07005928      -0.15370288      -0.01824889       1.66947198      -0.54210452       0.81218758
I        5.43649906      11.37473546       1.98679248       0.06263083      -0.17442630       0.08680060      -0.81328321       1.81528257       1.21336258
I        0.32402289      11.13588740      14.52089196      -0.14893673      -0.31543190       0.05420649       0.46821204      -0.19729048      -0.57238382
I        6.45863339      17.18474312      15.77774629       0.01651929      -0.06511510      -0.01203571      -0.57582470       0.86721632       0.95629073
I        2.86676463      14.48864614      15.81894541       0.02614398      -0.02209349      -0.07107148      -1.84623195       0.84294142       1.64163593
I        9.10679347       8.33245848      15.48383114      -0.10307160      -0.03737627      -0.10257835      -1.12432911       1.51906400      -0.12890805
I        9.06851075      13.84334577       2.16711181      -0.02914960       0.08093725       0.04481083       0.56373378       0.42292623       2.02787111
I        2.72927536      20.14030068       1.89743912       0.18388098       0.00286891       0.09891510      -1.30760144       0.35991759       0.23950653
I       24.23848977      19.46769828      11.68925352       0.05911983       0.04673717       0.07901464       0.60547747      -0.99904428      -0.37202163
I        5.43578246      14.60448724      12.03701573       0.04740896       0.07518344       0.15402710       1.48736788       1.67562988      -1.00014300
I       12.79813307       8.63698145       5.74335015      -0.07065946       0.08695373      -0.17045337       1.34350722       0.64214515       3.90701969
I        6.53894966      13.56959081       5.86853202      -0.00867574      -0.05093216      -0.16666617      -0.62564230       3.18168076       1.69528180
I       24.19701877      13.35447646       5.64170672      -0.00255269       0.00265201       0.10954099      -1.52316565       0.76412491      -0.59081722
I        5.58417466      21.12662581       5.70372418      -0.03789683      -0.04077008       0.12878801       1.44509895       1.19139249      -0.25551453
I       12.49135043      14.44293373      12.04644814       0.12257219       0.23182946      -0.33560864       0.30088741       2.16762924       0.38670392
I        6.35747655       6.75843752      11.95152632      -0.07050923       0.21655196       0.27785092       1.23570253       1.44666281       0.29140693
Cs       9.12536632      16.33263458      18.30709992       0.02321619       0.00905184       0.01490817       0.28233584       0.45366920       0.84919518
Cs       3.01035002      11.10069497      17.78523893      -0.10337984       0.11922890      -0.02266008      -1.31487464       0.56920991       1.10283290
Cs       2.86430537      10.98366716      24.18948149      -0.00775159      -0.02040141      -0.12679723       0.17654022       0.79409070       2.12453868
Cs       9.07958049      17.12799839       0.15046089       0.00643006       0.03084698       0.00950986       0.60433281       0.89074459       0.71597034
Cs       9.06263936      10.12167569      24.62175691       0.11254400      -0.17656732       0.10060202      -0.26963400      -2.17299991       0.18727708
Cs       2.71216985      16.85481494      23.79249733      -0.04499245      -0.03157137      -0.09554868       0.55598610       1.60299339       1.67547435
Cs       2.86698720      17.82122478      17.82579083       0.04162912      -0.02843976      -0.03397257      -1.50456863      -1.59204038      -1.10134387
Cs       9.07518122      10.12278563      18.79726834       0.00812933       0.08028240       0.05529671      -0.80224997       0.49470928       1.77305726
Pb      24.76881155       7.22822801      20.99755812      -0.07963249       0.02537294       0.18680236      -2.35099244       0.53432001      -2.92043858
Pb       6.01076049      13.71120217      21.36477952       0.14841344      -0.09505270      -0.04791630       0.15467013      -1.07039061      -0.67561703
Pb      24.73218255      13.45428571      21.11902423       0.03817972       0.17305314      -0.22786445       2.69524448       0.36813664       0.09871673
Pb       5.91110522       7.37064044      21.54199637       0.00870103       0.01944033      -0.15030963       2.11314505      -2.71140815      -1.06783333
Pb      24.82610469       7.76467206      14.86450717      -0.05952285       0.31890951      -0.03030600      -0.42995854       0.74557283      -0.03544600
Pb       6.08981605      14.05860161      15.14306162      -0.38204393      -0.15234248       0.09240313       0.19051537       1.08222476      -0.21659837
Pb      24.78598022      14.13743104      14.91856819       0.33459047      -0.28628231       0.42068692      -0.74508299       2.42804221      -1.24038050
Pb       5.89705519       7.78138951      15.21441735       0.11146722       0.19542853      -0.30552563      -1.05064543       1.56077773      -0.09575923
I       24.28040837      10.53458106      21.79797483       0.00764587      -0.38025264      -0.01340637       0.36742348      -0.58887030       1.99550610
I        5.37027679      16.73414039      20.63228619      -0.00133876      -0.02482650      -0.08178411       1.01889225       0.77767105       1.60978917
I       12.63693848      16.62427892      20.13008120       0.05233643       0.23930108       0.21170065       0.82935017      -0.46829880       0.45717170
I        6.42341266      10.46880079      22.13495670      -0.04931625       0.22181758      -0.14684616       0.30113976      -0.45250835       0.44706447
I        9.24203472      14.61952794      21.55094905      -0.31754928      -0.17462426       0.16147871      -0.21536744       1.49311479       1.50504315
I        2.75001078      20.18065022      21.63407056       0.07455510       0.05170220       0.06741000       0.93338495       1.75784990      -1.18172808
I        2.89583240      13.34646772      21.09295838       0.01441087      -0.07536438      -0.08354893       0.53114713      -0.15048574      -0.47699197
I        8.98854996       6.81192170      21.03075432       0.08651370       0.07742392      -0.11160445      -1.10599424      -0.02814506      -0.42061790
I       11.85334379      17.29727552      15.73432171      -0.07005928      -0.15370288      -0.01824889       1.66947198      -0.54210452       0.81218758
I        5.49873436      10.98564136      14.39543435       0.06263083      -0.17442630       0.08680060      -0.81328321       1.81528257       1.21336258
I        0.26178759      11.52498150       2.11225009      -0.14893673      -0.31543190       0.05420649       0.46821204      -0.19729048      -0.57238382
I        6.39639809      17.57383722       3.36910442       0.01651929      -0.06511510      -0.01203571      -0.57582470       0.86721632       0.95629073
I        2.80452933      14.87774024       3.41030354       0.02614398      -0.02209349      -0.07107148      -1.84623195       0.84294142       1.64163593
I        9.04455817       8.72155258       3.07518927      -0.10307160      -0.03737627      -0.10257835      -1.12432911       1.51906400      -0.12890805
I        9.13074605      13.45425167      14.57575368      -0.02914960       0.08093725       0.04481083       0.56373378       0.42292623       2.02787111
I        2.79151066      19.75120658      14.30608099       0.18388098       0.00286891       0.09891510      -1.30760144       0.35991759       0.23950653
I       24.30072507      19.07860419      24.09789540       0.05911983       0.04673717       0.07901464       0.60547747      -0.99904428      -0.37202163
I        5.49801776      14.21539314      24.44565760       0.04740896       0.07518344       0.15402710       1.48736788       1.67562988      -1.00014300
I       12.86036837       8.24788735      18.15199202      -0.07065946       0.08695373      -0.17045337       1.34350722       0.64214515       3.90701969
I        6.60118496      13.18049671      18.27717389      -0.00867574      -0.05093216      -0.16666617      -0.62564230       3.18168076       1.69528180
I       24.25925407      12.96538237      18.05034860      -0.00255269       0.00265201       0.10954099      -1.52316565       0.76412491      -0.59081722
I        5.64640996      20.73753171      18.11236605      -0.03789683      -0.04077008       0.12878801       1.44509895       1.19139249      -0.25551453
I       12.55358573      14.05383963      24.45509001       0.12257219       0.23182946      -0.33560864       0.30088741       2.16762924       0.38670392
I        6.41971185       6.36934342      24.36016819      -0.07050923       0.21655196       0.27785092       1.23570253       1.44666281       0.29140693
Cs       9.02716893       4.30905249       6.00635457       0.02321619       0.00905184       0.01490817       0.28233584       0.45366920       0.84919518
Cs       2.98407681      23.90246526       5.26870054      -0.10337984       0.11922890      -0.02266008      -1.31487464       0.56920991       1.10283290
Cs       2.83803216      23.78543745      11.67294310      -0.00775159      -0.02040141      -0.12679723       0.17654022       0.79409070       2.12453868
Cs       9.10585370       4.32622810      12.66699928       0.00643006       0.03084698       0.00950986       0.60433281       0.89074459       0.71597034
Cs       9.03636615      22.92344598      12.10521852       0.11254400      -0.17656732       0.10060202      -0.26963400      -2.17299991       0.18727708
Cs       2.61397246       4.83123285      11.49175198      -0.04499245      -0.03157137      -0.09554868       0.55598610       1.60299339       1.67547435
Cs       2.76878981       5.79764269       5.52504548       0.04162912      -0.02843976      -0.03397257      -1.50456863      -1.59204038      -1.10134387
Cs       9.04890801      22.92455592       6.28072995       0.00812933       0.08028240       0.05529671      -0.80224997       0.49470928       1.77305726
Pb      24.74253834      20.02999830       8.48101972      -0.07963249       0.02537294       0.18680236      -2.35099244       0.53432001      -2.92043858
Pb       5.91256310       1.68762008       9.06403417       0.14841344      -0.09505270      -0.04791630       0.15467013      -1.07039061      -0.67561703
Pb      24.63398516       1.43070361       8.81827888       0.03817972       0.17305314      -0.22786445       2.69524448       0.36813664       0.09871673
Pb       5.88483201      20.17241073       9.02545798       0.00870103       0.01944033      -0.15030963       2.11314505      -2.71140815      -1.06783333
Pb      24.79983148      20.56644235       2.34796877      -0.05952285       0.31890951      -0.03030600      -0.42995854       0.74557283      -0.03544600
Pb       5.99161866       2.03501952       2.84231627      -0.38204393      -0.15234248       0.09240313       0.19051537       1.08222476      -0.21659837
Pb      24.68778283       2.11384894       2.61782284       0.33459047      -0.28628231       0.42068692      -0.74508299       2.42804221      -1.24038050
Pb       5.87078198      20.58315980       2.69787896       0.11146722       0.19542853      -0.30552563      -1.05064543       1.56077773      -0.09575923
I       24.25413516      23.33635135       9.28143643       0.00764587      -0.38025264      -0.01340637       0.36742348      -0.58887030       1.99550610
I        5.27207940       4.71055830       8.33154084      -0.00133876      -0.02482650      -0.08178411       1.01889225       0.77767105       1.60978917
I       12.53874109       4.60069683       7.82933585       0.05233643       0.23930108       0.21170065       0.82935017      -0.46829880       0.45717170
I        6.39713945      23.27057108       9.61841831      -0.04931625       0.22181758      -0.14684616       0.30113976      -0.45250835       0.44706447
I        9.14383733       2.59594585       9.25020370      -0.31754928      -0.17462426       0.16147871      -0.21536744       1.49311479       1.50504315
I        2.65181339       8.15706813       9.33332521       0.07455510       0.05170220       0.06741000       0.93338495       1.75784990      -1.18172808
I        2.79763501       1.32288563       8.79221303       0.01441087      -0.07536438      -0.08354893       0.53114713      -0.15048574      -0.47699197
I        8.96227675      19.61369199       8.51421593       0.08651370       0.07742392      -0.11160445      -1.10599424      -0.02814506      -0.42061790
I       11.75514640       5.27369343       3.43357636      -0.07005928      -0.15370288      -0.01824889       1.66947198      -0.54210452       0.81218758
I        5.47246115      23.78741165       1.87889596       0.06263083      -0.17442630       0.08680060      -0.81328321       1.81528257       1.21336258
I        0.35998498      23.54856359      14.41299544      -0.14893673      -0.31543190       0.05420649       0.46821204      -0.19729048      -0.57238382
I        6.42267130       4.77206693      15.88564281       0.01651929      -0.06511510      -0.01203571      -0.57582470       0.86721632       0.95629073
I        2.83080254       2.07596995      15.92684193       0.02614398      -0.02209349      -0.07107148      -1.84623195       0.84294142       1.64163593
I        9.14275556      20.74513467      15.37593462      -0.10307160      -0.03737627      -0.10257835      -1.12432911       1.51906400      -0.12890805
I        9.03254866       1.43066958       2.27500833      -0.02914960       0.08093725       0.04481083       0.56373378       0.42292623       2.02787111
I        2.69331327       7.72762449       2.00533564       0.18388098       0.00286891       0.09891510      -1.30760144       0.35991759       0.23950653
I       24.20252768       7.05502209      11.79715005       0.05911983       0.04673717       0.07901464       0.60547747      -0.99904428      -0.37202163
I        5.39982037       2.19181105      12.14491225       0.04740896       0.07518344       0.15402710       1.48736788       1.67562988      -1.00014300
I       12.83409516      21.04965764       5.63545363      -0.07065946       0.08695373      -0.17045337       1.34350722       0.64214515       3.90701969
I        6.50298757       1.15691462       5.97642854      -0.00867574      -0.05093216      -0.16666617      -0.62564230       3.18168076       1.69528180
I       24.16105668       0.94180027       5.74960325      -0.00255269       0.00265201       0.10954099      -1.52316565       0.76412491      -0.59081722
I        5.54821257       8.71394962       5.81162070      -0.03789683      -0.04077008       0.12878801       1.44509895       1.19139249      -0.25551453
I       12.45538834       2.03025754      12.15434466       0.12257219       0.23182946      -0.33560864       0.30088741       2.16762924       0.38670392
I        6.39343864      19.17111371      11.84362980      -0.07050923       0.21655196       0.27785092       1.23570253       1.44666281       0.29140693
Cs       9.08940423       3.91995839      18.41499644       0.02321619       0.00905184       0.01490817       0.28233584       0.45366920       0.84919518
Cs       3.04631211      23.51337116      17.67734241      -0.10337984       0.11922890      -0.02266008      -1.31487464       0.56920991       1.10283290
Cs       2.90026746      23.39634335      24.08158497      -0.00775159      -0.02040141      -0.12679723       0.17654022       0.79409070       2.12453868
Cs       9.04361840       4.71532220       0.25835741       0.00643006       0.03084698       0.00950986       0.60433281       0.89074459       0.71597034
Cs       9.09860145      22.53435188      24.51386039       0.11254400      -0.17656732       0.10060202      -0.26963400      -2.17299991       0.18727708
Cs       2.67620776       4.44213875      23.90039385      -0.04499245      -0.03157137      -0.09554868       0.55598610       1.60299339       1.67547435
Cs       2.83102511       5.40854859      17.93368735       0.04162912      -0.02843976      -0.03397257      -1.50456863      -1.59204038      -1.10134387
Cs       9.11114331      22.53546182      18.68937182       0.00812933       0.08028240       0.05529671      -0.80224997       0.49470928       1.77305726
Pb      24.80477364      19.64090420      20.88966159      -0.07963249       0.02537294       0.18680236      -2.35099244       0.53432001      -2.92043858
Pb       5.97479840       1.29852598      21.47267604       0.14841344      -0.09505270      -0.04791630       0.15467013      -1.07039061      -0.67561703
Pb      24.69622046       1.04160951      21.22692075       0.03817972       0.17305314      -0.22786445       2.69524448       0.36813664       0.09871673
Pb       5.94706731      19.78331663      21.43409985       0.00870103       0.01944033      -0.15030963       2.11314505      -2.71140815      -1.06783333
Pb      24.86206678      20.17734825      14.75661064      -0.05952285       0.31890951      -0.03030600      -0.42995854       0.74557283      -0.03544600
Pb       6.05385396       1.64592542      15.25095814      -0.38204393      -0.15234248       0.09240313       0.19051537       1.08222476      -0.21659837
Pb      24.75001813       1.72475484      15.02646471       0.33459047      -0.28628231       0.42068692      -0.74508299       2.42804221      -1.24038050
Pb       5.93301728      20.19406570      15.10652083       0.11146722       0.19542853      -0.30552563      -1.05064543       1.56077773      -0.09575923
I       24.31637046      22.94725725      21.69007830       0.00764587      -0.38025264      -0.01340637       0.36742348      -0.58887030       1.99550610
I        5.33431470       4.32146420      20.74018271      -0.00133876      -0.02482650      -0.08178411       1.01889225       0.77767105       1.60978917
I       12.60097639       4.21160273      20.23797772       0.05233643       0.23930108       0.21170065       0.82935017      -0.46829880       0.45717170
I        6.45937475      22.88147698      22.02706018      -0.04931625       0.22181758      -0.14684616       0.30113976      -0.45250835       0.44706447
I        9.20607263       2.20685175      21.65884557      -0.31754928      -0.17462426       0.16147871      -0.21536744       1.49311479       1.50504315
I        2.71404869       7.76797403      21.74196708       0.07455510       0.05170220       0.06741000       0.93338495       1.75784990      -1.18172808
I        2.85987031       0.93379153      21.20085490       0.01441087      -0.07536438      -0.08354893       0.53114713      -0.15048574      -0.47699197
I        9.02451205      19.22459789      20.92285780       0.08651370       0.07742392      -0.11160445      -1.10599424      -0.02814506      -0.42061790
I       11.81738170       4.88459933      15.84221823      -0.07005928      -0.15370288      -0.01824889       1.66947198      -0.54210452       0.81218758
I        5.53469645      23.39831755      14.28753783       0.06263083      -0.17442630       0.08680060      -0.81328321       1.81528257       1.21336258
I        0.29774968      23.93765769       2.00435357      -0.14893673      -0.31543190       0.05420649       0.46821204      -0.19729048      -0.57238382
I        6.36043600       5.16116103       3.47700094       0.01651929      -0.06511510      -0.01203571      -0.57582470       0.86721632       0.95629073
I        2.76856724       2.46506405       3.51820006       0.02614398      -0.02209349      -0.07107148      -1.84623195       0.84294142       1.64163593
I        9.08052026      21.13422877       2.96729275      -0.10307160      -0.03737627      -0.10257835      -1.12432911       1.51906400      -0.12890805
I        9.09478396       1.04157548      14.68365020      -0.02914960       0.08093725       0.04481083       0.56373378       0.42292623       2.02787111
I        2.75554857       7.33853039      14.41397751       0.18388098       0.00286891       0.09891510      -1.30760144       0.35991759       0.23950653
I       24.26476298       6.66592799      24.20579192       0.05911983       0.04673717       0.07901464       0.60547747      -0.99904428      -0.37202163
I        5.46205567       1.80271695      24.55355412       0.04740896       0.07518344       0.15402710       1.48736788       1.67562988      -1.00014300
I       12.89633046      20.66056354      18.04409550      -0.07065946       0.08695373      -0.17045337       1.34350722       0.64214515       3.90701969
I        6.56522287       0.76782052      18.38507041      -0.00867574      -0.05093216      -0.16666617      -0.62564230       3.18168076       1.69528180
I       24.22329198       0.55270617      18.15824512      -0.00255269       0.00265201       0.10954099      -1.52316565       0.76412491      -0.59081722
I        5.61044787       8.32485552      18.22026257      -0.03789683      -0.04077008       0.12878801       1.44509895       1.19139249      -0.25551453
I       12.51762364       1.64116344      24.56298653       0.12257219       0.23182946      -0.33560864       0.30088741       2.16762924       0.38670392
I        6.45567394      18.78201961      24.25227167      -0.07050923       0.21655196       0.27785092       1.23570253       1.44666281       0.29140693
Cs      21.62405837      16.69184142       5.83367071       0.02321619       0.00905184       0.01490817       0.28233584       0.45366920       0.84919518
Cs      15.50904207      11.45990181       5.31180972      -0.10337984       0.11922890      -0.02266008      -1.31487464       0.56920991       1.10283290
Cs      15.36299742      11.34287400      11.71605228      -0.00775159      -0.02040141      -0.12679723       0.17654022       0.79409070       2.12453868
Cs      21.70274314      16.70901703      12.49431542       0.00643006       0.03084698       0.00950986       0.60433281       0.89074459       0.71597034
Cs      21.56133141      10.48088253      12.14832770       0.11254400      -0.17656732       0.10060202      -0.26963400      -2.17299991       0.18727708
Cs      15.21086190      17.21402178      11.31906812      -0.04499245      -0.03157137      -0.09554868       0.55598610       1.60299339       1.67547435
Cs      15.36567925      18.18043162       5.35236162       0.04162912      -0.02843976      -0.03397257      -1.50456863      -1.59204038      -1.10134387
Cs      21.57387327      10.48199247       6.32383913       0.00812933       0.08028240       0.05529671      -0.80224997       0.49470928       1.77305726
Pb      12.14564890       7.64720937       8.65370359      -0.07963249       0.02537294       0.18680236      -2.35099244       0.53432001      -2.92043858
Pb      18.50945254      14.07040901       8.89135031       0.14841344      -0.09505270      -0.04791630       0.15467013      -1.07039061      -0.67561703
Pb      12.10901990      13.87326707       8.77516970       0.03817972       0.17305314      -0.22786445       2.69524448       0.36813664       0.09871673
Pb      18.40979727       7.72984728       9.06856716       0.00870103       0.01944033      -0.15030963       2.11314505      -2.71140815      -1.06783333
Pb      12.20294204       8.18365342       2.52065264      -0.05952285       0.31890951      -0.03030600      -0.42995854       0.74557283      -0.03544600
Pb      18.58850810      14.41780845       2.66963241      -0.38204393      -0.15234248       0.09240313       0.19051537       1.08222476      -0.21659837
Pb      12.16281757      14.55641240       2.57471366       0.33459047      -0.28628231       0.42068692      -0.74508299       2.42804221      -1.24038050
Pb      18.39574724       8.14059635       2.74098814       0.11146722       0.19542853      -0.30552563      -1.05064543       1.56077773      -0.09575923
I       11.65724572      10.95356242       9.45412030       0.00764587      -0.38025264      -0.01340637       0.36742348      -0.58887030       1.99550610
I       17.86896884      17.09334723       8.15885698      -0.00133876      -0.02482650      -0.08178411       1.01889225       0.77767105       1.60978917
I       25.13563053      16.98348576       7.65665199       0.05233643       0.23930108       0.21170065       0.82935017      -0.46829880       0.45717170
I       18.92210471      10.82800763       9.66152749      -0.04931625       0.22181758      -0.14684616       0.30113976      -0.45250835       0.44706447
I       21.74072677      14.97873478       9.07751984      -0.31754928      -0.17462426       0.16147871      -0.21536744       1.49311479       1.50504315
I       15.24870283      20.53985706       9.16064135       0.07455510       0.05170220       0.06741000       0.93338495       1.75784990      -1.18172808
I       15.39452445      13.70567456       8.61952917       0.01441087      -0.07536438      -0.08354893       0.53114713      -0.15048574      -0.47699197
I       21.48724201       7.17112854       8.55732511       0.08651370       0.07742392      -0.11160445      -1.10599424      -0.02814506      -0.42061790
I       24.35203584      17.65648236       3.26089250      -0.07005928      -0.15370288      -0.01824889       1.66947198      -0.54210452       0.81218758
I       17.99742641      11.34484820       1.92200514       0.06263083      -0.17442630       0.08680060      -0.81328321       1.81528257       1.21336258
I       12.88495024      11.10600014      14.45610462      -0.14893673      -0.31543190       0.05420649       0.46821204      -0.19729048      -0.57238382
I       19.01956074      17.15485586      15.71295895       0.01651929      -0.06511510      -0.01203571      -0.57582470       0.86721632       0.95629073
I       15.42769198      14.45875888      15.75415807       0.02614398      -0.02209349      -0.07107148      -1.84623195       0.84294142       1.64163593
I       21.66772082       8.30257122      15.41904380      -0.10307160      -0.03737627      -0.10257835      -1.12432911       1.51906400      -0.12890805