320
Lattice="35.78794042575779 -0.37839846603646177 -0.24217113649280456 0.2257959835333163 21.00955516298944 -0.015306901360210465 0.11054213265190213 0.01896394099226511 19.312856914076352" Properties=species:S:1:pos:R:3:forces:R:3:momenta:R:3 energy=-985.6330868553441 stress="0.0 0.0 0.0 0.0 0.0 0.0 0.0 0.0 0.0" pbc="T T T"
Cs       7.54877342       3.37001285       5.36538402      -0.13326294       0.06212374       0.18325643      -0.07055953      -5.54360205      -3.49358646
Cs      13.42581447      12.28081331       3.33011815       0.21666609      -0.22316005      -0.10556021      -0.49628930       2.67401473      -2.69004138
Cs       4.45419532       8.42725219       5.45653245       0.04746375       0.15359612      -0.19716949       1.10071366       0.37846910       0.47310865
Cs      16.65813399       6.74630148       3.20827208      -0.11499232      -0.08807985       0.11173692       0.79068493      -1.91411447      -3.05474337
Cs       7.41407005       3.34609486      10.14600752      -0.01875715       0.02766708       0.20234748      -1.10920613       1.07246058       2.66977422
Cs      13.13109805      12.08190227       7.97697764       0.35182817      -0.10438507       0.10137091      -2.95259193      -1.21085509      -0.13431747
Cs       4.59750103       8.66669315      10.13870562       0.00575241       0.02251528       0.16762114       2.16743305       0.86330742      -2.41823514
Cs      16.18291942       6.82642221       7.98007917       0.07967700      -0.17150981       0.11670635       1.42176923      -0.60722112      -0.41611846
Pb       2.88162419       4.13967226       3.31154431      -0.23287522      -0.10123398      -0.34812653       1.00985641       0.30599153       2.84266813
Pb      18.47955259      11.21253494       5.88260580      -0.18416140       0.26262107      -0.19604416       3.83371243      -1.43593534       1.05535481
Pb       9.50186148       9.32005436       3.30830403       0.25667661       0.06624201      -0.31721498       2.45687584       2.18966499       0.11979478
Pb      11.83178030       5.89162468       5.64469493      -0.17131234      -0.02976818      -0.14819485      -1.93550607      -3.21531041      -0.59376858
Pb       2.63851646       4.20661642       7.89173378      -0.14452131      -0.13004294       0.19075597      -2.40840194      -2.93268909       2.62488564
Pb      18.04353927      11.27048753      10.60794998       0.51455914       0.37946897      -0.14091258      -2.72532316      -0.38605252       2.45244994
Pb       9.24670792       8.89928962       8.07823443       0.16187348       0.19851308      -0.29972109       0.15004527       1.24209575      -3.38984581
Pb      11.69977328       6.09681387      10.54654426       0.13988775      -0.22604310      -0.00055052      -2.18244645      -0.21540596      -0.98522072
I        1.40087997       6.04147984       5.49330305       0.12812071      -0.02866741       0.10788574       1.62726299      -0.24181550      -3.17555271
I        1.14733253       9.58052836       2.97356031       0.34160289      -0.20819054       0.18100598      -1.52873195      -1.63239944      -3.01392480
I       10.58605837      10.88914309       5.79513521      -0.07802696       0.27009684       0.00905769      -1.42212286       1.87459379       0.43724159
I       10.38303028       4.10896815       3.25990147       0.30370453       0.26427866      -0.40061709      -1.27639930      -1.92693882      -3.71931570
I       17.16249074       2.64239144       3.40925453       0.18736196      -0.24689038      -0.22613008       4.04180694       0.23321462      -1.06170144
I        3.54689946      12.53897608       5.31839790      -0.11495440      -0.11694830       0.09230610       1.46890757       4.32916138       2.03727875
I       12.68830430       8.03259087       3.47484569       0.04474354       0.01662442      -0.24226960       0.11526320       0.45199714      -0.13681209
I        8.81970796       7.05944575       5.27258530      -0.61182373       0.02411303       0.27433229       2.46923830      -1.45056938       1.94864921
I        5.65433557       5.70768638       2.80006990      -0.31919536      -0.18904733       0.32893966       2.41236620      -0.61114417      -1.21677204
I       15.69520372       9.84149223       5.61411036       0.03996661       0.09672238       0.05570634      -2.76724112       1.42908943       0.83207281
I        6.92200152      10.88562529       3.13672121      -0.35127245      -0.09475705       0.04861249       0.87435190      -3.34448272       1.03448303
I       14.42137763       4.34787961       5.62751125       0.19330886      -0.09626184       0.01283921      -0.36601218      -1.78628781       0.20812167
I        1.61008459       5.99764489      10.36539131      -0.06165266       0.17697383       0.03066405       0.39124924      -0.23193846       0.48021903
I        1.47073505       9.26402948       8.06474558      -0.03505097       0.19574844      -0.14030823       0.61507018      -1.27154210       1.02704070
I       10.08351869      10.99402693      10.26092207       0.25411244       0.05146983       0.24145079      -2.36723423       0.10132805       1.33713005
I       10.61507604       4.25333258       8.15323486      -0.13567805      -0.14894929       0.07547812       1.57707327      -1.29357977       1.81722225
I       17.30317538       2.47639711       7.82525418       0.15405013      -0.07376354      -0.02358403      -0.53500335       0.98052406      -0.04642269
I        3.60627907      12.52025348      10.30540385       0.13176416      -0.16413169       0.08215254      -0.35694627      -2.06978715       2.46754548
I       12.57198586       7.95928937       8.01576701       0.06727921       0.15260345       0.03644333      -0.92546700       1.49105136       1.79566617
I        8.31753024       7.11534184      10.53648972       0.04242651      -0.12151377      -0.07475258      -1.71796882       0.19235565       0.87413119
I        5.37363108       5.64071380       7.71800521       0.08454872      -0.00832270       0.08003586       0.15460501       0.03575765       1.25728460
I       15.52968460       9.70134340      10.52453144      -0.29422782      -0.18155451      -0.13180180       0.53745889      -0.71509124       0.26848020
I        6.75948364      10.70116031       7.50088102      -0.21948635      -0.00828920       0.23406186      -0.76092613       0.33652461       0.91965477
I       14.30821680       4.26968247      10.74196367      -0.12974160       0.38019844      -0.07595656       3.21086514       2.61647503      -1.82963320
Cs       7.17127054       3.07108350      15.48640838       0.20117785       0.28573419      -0.16370195      -1.21197287      -0.99491533      -0.66064949
Cs      13.51384468      11.66830078      12.52846382      -0.07886505       0.42972378       0.29296320      -1.47327135      -1.08769434      -1.39605983
Cs       4.67224972       8.52477730      15.49541554      -0.01854320       0.12062585      -0.15134503      -1.01538529      -1.79142731      -3.89699426
Cs      16.62191521       6.70736085      13.02482221      -0.18572522      -0.02680772      -0.06385006      -0.84696278       1.14893381       1.11531926
Cs       7.34753213       3.12108493       0.72924485       0.09522908       0.14975426      -0.03587070       3.26291723       2.46565076      -1.67839052
Cs      13.45025365      11.98315802      17.51771684       0.12228918      -0.03017026       0.18211801       2.10941681       1.63329540       4.07725267
Cs       4.62170872       8.55048873       0.77745572      -0.06608667       0.11929473       0.05683633       2.03224859       0.72863892       1.56620334
Cs      16.43390830       7.17113287      17.81645056       0.01151971      -0.28745795      -0.05507301       2.44984835      -0.74721905       2.02163028
Pb       2.80534496       4.25448216      12.70053744      -0.57299245      -0.16007389       0.24718288       0.17127755       2.92629921       3.03118925
Pb      18.53107339      11.17479510      15.12791385      -0.43943878       0.39672265       0.42112315      -0.73835041      -2.08154588      -1.10498533
Pb       9.27164830       9.13668158      12.86943295       0.02848543       0.04750061       0.21809792       0.38775424      -0.78527107      -0.21012038
Pb      11.63557874       5.82659324      15.31603444       0.03491305       0.07991579       0.09949937       1.78175245       0.23897982       0.36110684
Pb       2.51347669       4.09033500      17.75553071       0.05752576      -0.18716483       0.08498936      -0.64033139       1.70890519       2.08484052
Pb      18.30191393      11.05413989       1.01685013      -0.00260692       0.07596002      -0.16337269      -0.88996968       1.17760605       3.25489071
Pb       9.64945180       9.47993482      17.67280309      -0.03557751      -0.01331401       0.07758345       3.41402819      -0.61423567       2.25030411
Pb      11.70679220       6.23656116       0.89285877      -0.10775165      -0.34638339       0.06078136       0.93963860       2.60632592       0.06343155
I        1.65984272       6.01070174      15.49355648      -0.09932229      -0.00693150      -0.43258075       0.04687408      -0.85631358      -0.84346561
I        1.41572883       9.39278045      12.82098235       0.38844238      -0.09235774       0.43426813      -2.12812075       0.79397560       0.68150186
I       10.48123672      11.22272980      15.00695271      -0.01299684       0.04363045       0.18596618      -1.64992450      -4.38405393       2.03388828
I       10.31699485       4.41911388      12.80187465      -0.05271034      -0.55524137       0.07619813       0.15387477       0.96027753      -1.39903800
I       17.51842363       2.59674775      12.70609865      -0.05567511       0.26913639       0.24892020      -3.19047476       1.83499134      -2.24782157
I        3.67797977      12.60992607      15.37445925      -0.02824592      -0.17237994      -0.31454948      -0.58338653       0.18318788       0.91809389
I       12.41342997       8.06915510      13.12547107       0.24789193       0.00020305      -0.26126709       0.35323786      -0.45919272       1.45714452
I        8.45090293       7.31724730      15.56643351       0.12021185      -0.06713480      -0.16068033       1.04015181       1.33186134      -1.49840772
I        5.31476514       5.75271748      12.78281845       0.36706975      -0.05399646       0.01120605      -2.63480431       1.09434559       1.88614487
I       15.60801068       9.97290969      15.27995912       0.19185228      -0.17114120      -0.13809374      -0.69907459       0.50116952       1.84428046
I        6.62467005      10.70893281      12.93227106      -0.20422055      -0.04114420      -0.03405188       2.96440559      -2.46605382      -3.39451433
I       14.48617900       4.50786888      15.35885904      -0.13871242       0.00996258      -0.09232878       0.01874121      -0.83415236       1.01164242
I        1.49254940       5.82960978       0.84497931      -0.07918433       0.22967511       0.05329351      -0.29540130       0.63886996       0.00226103
I        1.49093768       9.42794316      17.73884382       0.15824995      -0.17982112      -0.07646176      -0.18542883       1.16555029      -0.42604314
I       10.77144944      11.22996549       0.80240028      -0.05287571       0.00290971       0.03711099       0.86933456      -1.11586974      -1.05039713
I       10.80149869       4.13045356      17.87139781      -0.33558749       0.04490718       0.10378195      -0.15460768       1.34683714       1.87726464
I       17.41049650       3.07827565      17.85271657      -0.00830863      -0.40352223       0.01815929       0.96978862      -0.09329518      -1.23101189
I        3.64971247      12.62785061       0.72216669       0.15092278      -0.02710374       0.19448631       0.40024292      -1.31131765       2.05635849
I       12.76272898       7.96401289      17.43663999      -0.22055902       0.09572485       0.34542460      -1.30072605       0.45593597       1.73751109
I        8.56132420       7.51426399       0.76949895       0.02682511      -0.19594464      -0.15171700       0.21562434       1.02555852       0.11266381
I        5.24451693       5.56921322      17.74598635       0.09750168      -0.09189392       0.06522620       0.48942195      -0.37359853      -1.56617028
I       15.60669728       9.58761936       1.01805400      -0.27729928       0.24949443      -0.03697223       3.75085934      -0.94298551      -0.37850376
I        6.86918250      10.90879245      17.93929742      -0.00233008      -0.18143883      -0.20528904      -0.34971490      -2.42130773       0.66022571
I       14.25941938       4.45015860       0.92732730       0.07457088       0.22659962      -0.01987845      -2.53985966       0.24665163      -1.80179793
Cs       7.40870894      13.89587593       5.35562201      -0.00349694      -0.00617519       0.14381445      -1.07094849      -0.73828017      -2.20796624
Cs      13.48761007       1.45948748       3.21554938       0.01153180      -0.06669356       0.11969640      -1.69330596      -0.18789071      -0.95823334
Cs       4.65761722      19.04979416       5.34530756       0.06514560      -0.10777168       0.27539404       0.42934886      -1.02769894       1.33054173
Cs      16.42237520      16.96406009       3.30818098       0.05002975       0.06672736      -0.12413287       1.65732268       0.11526464      -1.90852322
Cs       7.24619863      13.51026428      10.48061495       0.08428355       0.13542539      -0.21168319       2.95249068       1.53302563      -0.66475135
Cs      13.46345639       1.48095646       8.28135491       0.13203167      -0.10900601      -0.21185857      -1.09088221       0.20869891       1.77225374
Cs       4.97767350      19.04196845      10.13321073      -0.10801268       0.10653534       0.19687921       1.22711912       1.13414287       0.58571033
Cs      16.40699959      17.43242159       8.20662493       0.03130066      -0.28683638      -0.07026776       3.46707612       3.15602135       0.36964060
Pb       2.56445536      14.70067182       3.06662220       0.35737617      -0.10967847       0.12325373       2.93835268      -2.34786451       1.33453340
Pb      18.23114074       0.28924733       5.36785961       0.00021599       0.04218148       0.36634021      -0.84970383       3.53942211      -3.12246532
Pb       9.47120482      20.11821072       3.23963113      -0.13049815      -0.23948652       0.00683362      -2.41541230      -0.73028806      -1.60179579
Pb      11.63756156      16.45772913       5.47458227      -0.01807161       0.34285752       0.45825675      -2.46477232       0.21978337      -3.01695853
Pb       2.66835953      14.41724029       7.87809132       0.38749020       0.24697608      -0.14070414      -2.66524583      -1.17518454       0.14438371
Pb      18.41185294       0.63440055      10.29711546       0.09716770       0.01349038      -0.04842284       0.75468225       1.29409114      -1.82729330
Pb       9.57554612      20.04178643       8.00148577       0.16730354      -0.32118558       0.08923889      -0.36821742       2.69138678       0.22970945
Pb      11.40664266      16.18855201      10.33001793       0.02657326       0.38356735       0.14595897       0.11911908      -2.38945160      -0.45888196
I        1.65891513      16.53069199       5.65690152      -0.06748934      -0.07640617      -0.00631899       2.06544488      -1.29507904       0.03337943
I        1.50088882      19.89231364       3.44431428       0.05667296      -0.06591100      -0.13897850      -2.24551129      -1.36695088       0.64615703
I       10.29702393       0.96358162       5.69272778       0.35213272      -0.06111868       0.04005502       1.12143021       0.95605713      -0.22181834
I       10.48504347      14.64455442       3.32935197      -0.02073733      -0.10397258      -0.21538513      -2.37371957      -0.63606120      -1.40777765
I       17.52932086      13.24362552       3.19802057      -0.21171894      -0.11945362       0.19810026       1.13746612      -0.84657959      -0.97311601
I        3.42396333       2.14890718       5.72374393       0.17186757      -0.25424394      -0.06037753       1.68748155      -2.40810338       0.33238930
I       12.61449517      18.36114933       2.88572864      -0.28201495       0.14390385       0.36008335       2.56272638       1.43811732       1.45980004
I        8.54504070      18.05972090       5.59081053       0.12615916      -0.11909647       0.05116603       1.85519304      -0.24143906       2.50880803
I        5.50427052      16.06886592       2.86769680      -0.32119200      -0.06213678       0.19313050      -0.80871174       1.77717263       0.55165058
I       15.66720379      19.72958015       5.65915601       0.08499344       0.50054343      -0.12076000       0.91347760      -2.50100745       0.63822302
I        6.34136450       0.45011485       3.34803838       0.38608944      -0.11600671      -0.14741054      -0.09404892      -0.96500815       3.07065867
I       14.33792698      14.99044025       5.74668791       0.02061808      -0.00694632      -0.00206008       1.34933362       0.18693216      -0.90652979
I        2.12417850      16.48659311      10.27343526      -0.45595626       0.10288017       0.18356950      -1.87244659       0.64465530       2.42228889
I        1.67277004      19.82397512       8.19293047       0.05062035      -0.00934681      -0.08746939       2.83260412       1.35300345       0.09641064
I       10.48234808       0.73159639      10.54863788      -0.00875637       0.21462374      -0.14945121      -5.46836592       2.01006161      -0.83675184
I       10.29783044      14.46870621       7.87593555       0.01692571       0.15828405      -0.20448894       2.99687149       0.00981726      -0.13556034
I       17.29139061      13.34019623       8.24569496       0.19214562      -0.02410842      -0.19083520      -0.25265558      -2.49514378      -0.08705364
I        3.54208591       2.03145147      10.39878916      -0.04388036       0.28667906      -0.03637630       2.59311494      -2.37018762       0.54528939
I       12.72096042      18.28286554       8.33787505      -0.41559387       0.20446996      -0.49252931       1.83076065      -2.29091370      -1.27694128
I        8.60290426      17.94058276      10.41098596      -0.24358925       0.04823519      -0.07488169       2.38777218       0.57999095      -0.25910801
I        5.39636342      16.05315980       7.90664521      -0.03767758      -0.20749481      -0.07978908      -3.49313201       1.65289249      -0.59393499
I       16.01966919      20.21568815      10.46084926      -0.49722268      -0.16016353       0.14920985       0.89302632       1.24414007      -1.29264915
I        6.59885516       0.39664028       7.90046241      -0.01081917       0.01897154      -0.07486924      -2.95933395      -0.14895977      -1.44876632
I       14.17958683      15.05447610      10.48043621       0.35689780      -0.36261514      -0.02056644      -1.15316878       0.70959453       1.08718330
Cs       7.25978470      13.67662010      15.36245534       0.04551212       0.21829230      -0.19168156       3.11708564      -1.26263238      -0.77428696
Cs      13.61386871       1.16143952      13.04802138      -0.15293927       0.27842736      -0.06252921       1.45235237      -2.01536470       1.61457893
Cs       4.74235693      19.23188417      15.34331698       0.04839948      -0.10233403      -0.17287054      -2.12920078      -0.32368331       3.78750416
Cs      16.46817627      17.09517414      13.02747438      -0.15225233       0.17192036       0.05302860      -1.28646766      -1.45677418       0.45020197
Cs       7.54362916      13.77526781       0.63601021      -0.02568261       0.10319237       0.11565396      -0.20621242      -0.92165498      -1.00232744
Cs      13.41001120       1.70226906      17.77537554       0.15661956      -0.09940487       0.08033250       1.69094265      -2.94451351      -5.34612163
Cs       4.35063747      19.15290218       1.05152213       0.25694595      -0.02260088      -0.24376478       4.66505720       0.83409551       1.84894324
Cs      16.60440914      17.45095400      17.86115255      -0.08283602      -0.35659267      -0.21613319      -1.07139765       0.03589261      -0.18424699
Pb       2.88796849      14.60485935      12.63026176       0.25152587       0.24356642       0.39952270       2.88854221      -3.13098066       2.13454342
Pb      18.02146145       0.81253797      15.42910043       0.33844743       0.05305377      -0.24446829      -0.31427363      -3.94192535      -0.76346633
Pb       9.35848196      19.93050541      12.78254212       0.45235147       0.08822459       0.04839760       4.78948790      -1.53821411       4.18442879
Pb      11.57240322      16.52770751      15.15610485       0.11171235      -0.28071251      -0.33733519       0.35029058      -0.45313510       1.29229653
Pb       2.84613181      14.63179075      17.62671341       0.18712733       0.12239558      -0.09573268      -0.81397914       0.49399685       1.72250179
Pb      18.06280152       0.62404472       0.67804545       0.17870011       0.21920019       0.51387905      -0.03134270      -0.22377690      -0.11701338
Pb       9.57603525      19.83644852      17.64522959      -0.53217177       0.36908698       0.18154319      -0.36325430       0.23481354       0.89608545
Pb      11.59337056      16.36864884       0.63440603      -0.12085873       0.04177300       0.08811306       0.46752921      -3.42518714      -0.41815301
I        1.88978071      16.44737769      15.28330957      -0.14117155       0.12958019      -0.34888641      -2.16154330       1.49519782      -2.25531933
I        1.45408060      19.91615659      12.82031598       0.49046033      -0.33146290       0.21230866      -0.42568936      -1.17735653       0.02404938
I       10.39947608       0.80565962      15.39377586      -0.00914687      -0.06165434      -0.23557594       0.54114004      -1.71437252       0.44869242
I       10.42452714      14.51509284      12.83645349      -0.16647534      -0.15930945       0.12443864      -0.69202695       0.36270106      -1.12228847
I       17.37447190      13.46869465      12.91868729       0.00488255      -0.11716340       0.05927581       2.14163774       2.56211319      -2.38688945
I        3.34088107       2.21922151      15.14511100       0.09821275      -0.27019813       0.03873405      -0.69974207       1.41401113      -0.41176661
I       12.53294806      18.39267426      12.61003927      -0.12192951      -0.00953078       0.14280304      -1.35695115      -2.57750464       1.07195554
I        8.61367871      18.11091441      15.18476437      -0.29355815      -0.39202900       0.11525045       1.90404917      -2.50459308      -0.53983385
I        5.67203271      16.29684263      12.47989034      -0.37145216      -0.32819715       0.39138942       1.47976487      -1.71420280      -0.39143179
I       15.63851918      20.29258017      15.56294835      -0.13816846      -0.18939204      -0.09531419       1.26558208      -0.08706303      -1.79173657
I        6.52654516       0.51285690      12.77061687      -0.12981209      -0.05338230      -0.03059338       2.54290886       1.01600346      -0.50377748
I       14.22836338      14.90483418      15.43011890       0.04282456       0.07843335      -0.12801192       0.32301871       2.38593766       1.29457684
I        1.47193927      16.37101200       0.63146670      -0.07670089       0.38027659       0.23998536      -0.24539077      -0.57742913       0.57378367
I        1.92813343      19.97434953      17.71338129      -0.23091084       0.02378833      -0.09637063      -0.54871556      -0.53413233      -0.92736761
I       10.42500015       0.66897216       0.80225602       0.03949539       0.16917819      -0.11331359      -0.40128757      -1.22668003      -1.67371314
I       10.20141820      14.78183949      17.56721294       0.13285595      -0.18485766      -0.08541331       3.61730480      -3.00202328       0.96183272
I       17.56699825      12.99757154      17.88573549      -0.06694198       0.24667246      -0.08809218      -1.18852253       1.89803014       0.21799141
I        3.38717702       1.88371055       0.84843545      -0.04731134       0.25918877       0.12667262       0.45517845       0.44441536       1.39197369
I       12.48270019      18.36500304      17.52685100       0.19392243       0.27529003       0.27725832       0.52861308      -0.74301175      -0.28056597
I        8.49827137      18.07831966       1.00282257       0.11445520      -0.21655072      -0.15244275      -1.19553269      -1.66021627      -1.62004611
I        5.50907200      16.28801789      17.73172194       0.05609326      -0.04626082       0.00601674       1.32487344      -0.99329079      -1.20674206
I       15.65393970      20.00920412       0.86241598      -0.01564059       0.23739919      -0.04297093       1.08995975       3.90761141      -0.61654236
I        6.43731826       0.45030692      17.83992146       0.44922778      -0.45135819      -0.01747771      -0.21369541      -0.52683298      -1.60677412
I       14.34057550      14.88531546       0.55242338      -0.16816626       0.10127516       0.12032650      -1.11867921      -2.04179766      -1.78585460
Cs      25.11522862       3.38313792       5.57007834      -0.04573552      -0.31038593       0.12503284      -3.41998673      -2.64070145      -0.06056401
Cs      31.71798364      11.75595615       3.35041424       0.01953437      -0.08972464      -0.31829657      -0.17511189      -1.14958818      -3.03380160
Cs      22.53958709       8.46830797       5.62908903      -0.06726620      -0.16779931       0.07787966      -0.54606489      -1.79755911      -2.04414446
Cs      34.15735689       6.40935258       2.93977070       0.00837223       0.16755035      -0.05197547      -0.93661690      -2.82071559      -2.08397789
Cs      25.46963801       2.99991429      10.43324773      -0.13106273      -0.08739007      -0.04503827       1.12235106       1.65640746      -1.97446128
Cs      31.48739388      12.11570726       7.85663340       0.02368265      -0.26548749       0.07875235      -1.02513566       1.91593312      -0.46389778
Cs      22.56735613       8.45716176      10.36314567      -0.14613850       0.03945614       0.01644928       1.83879536       3.81664551      -0.37066724
Cs      34.11010820       6.15295061       7.97247648       0.07683256       0.25811056      -0.03907740       0.71476339      -1.03499719      -0.87631833
Pb      20.34492873       4.01137771       3.14980340      -0.35354042       0.20018342       0.18211607       1.73179659      -0.54745049      -5.83250349
Pb       0.29771208      11.27843782       5.67276986       0.08094827      -0.30107758      -0.04684632      -1.42598353       3.01058360       0.53248313
Pb      27.40948827       9.02094738       3.09440361       0.26133989       0.02717142       0.06399560      -2.39886847      -2.51743156       2.85892509
Pb      29.40941578       5.73064355       5.34795571       0.19947997       0.15808231       0.10753962       1.00732487      -0.37139845      -1.90898750
Pb      20.41322220       3.79535520       8.22828370       0.12645010       0.23061877      -0.46610175       2.89782227       1.01786214      -6.19127561
Pb       0.41899933      11.27919201      10.54978954       0.04923562      -0.30166527      -0.08059936      -1.43901213       1.35557255      -1.34311140
Pb      27.48239172       9.06031118       7.97517292      -0.41699296       0.14681834       0.02036707      -0.70490815       2.31646965      -3.15997020
Pb      29.13834627       5.82101087      10.15384976       0.35562909      -0.19370000       0.65817556       1.66350056      -2.20557180      -1.57605484
I       19.33864473       5.77096072       5.95019910       0.05964727       0.13387946      -0.25272440      -1.78446904      -0.03939448       0.64690337
I       19.54260103       9.31834997       3.51875028       0.06115898      -0.06436655      -0.03741369       2.35689235      -0.96532065       2.15621880
I       28.73020228      10.76362559       5.63084880      -0.21826269       0.04622490      -0.16181009      -0.20910552      -1.14948417       0.22490722
I       28.12377044       3.99970644       3.14509140       0.06933001      -0.32890246       0.02050167       0.37804998      -1.66758149       0.69043646
I       35.48474551       2.38066508       3.13773796      -0.00521888       0.03836536      -0.10651866       2.77111072       2.01985062      -0.78843424
I       21.70264906      12.61728796       5.57301226      -0.35838422       0.16083137       0.28401248       0.03897144      -1.07919513      -0.65630846
I       30.39988651       7.63331699       2.89552988       0.22383138       0.07115180       0.14465821       1.98099655      -1.66189635      -1.30437301
I       26.24693258       7.11487752       5.49254978       0.25869334       0.03375923       0.05095815       0.91959616      -1.08740788       2.81373173
I       22.98425593       5.37801118       3.10663474       0.37149724       0.28306316       0.00357904      -0.46684099       1.41090519      -1.71009996
I       33.33265038       9.35256240       5.73531017       0.25539548       0.04541422      -0.12059029      -2.03508238      -0.73443757      -0.85359933
I       24.92228733      10.69686143       3.26538205      -0.37741232       0.20170991      -0.02777718      -2.14680458       0.28304410       2.33107269
I       32.23964917       4.26408906       5.34687851      -0.28135209       0.05201616       0.06049147      -0.91676918      -1.08825063       2.16974592
I       19.40086814       5.86144052      10.19566771      -0.00284056      -0.07684671       0.70217646       1.94728330       3.03226184      -1.79513775
I       19.34047208       9.49731914       8.27319316       0.11892320      -0.22706828      -0.16168540      -3.07255198       1.48164032      -0.92549776