320
Lattice="25.121854697261806 -0.05977452525107978 -0.12957468506993428 0.07192418218408468 24.82535238426277 -0.21579304325525844 0.12447059888337542 -0.778188195725328 24.81728374174729" Properties=species:S:1:pos:R:3:forces:R:3:momenta:R:3 energy=-972.2143967454754 stress="0.0 0.0 0.0 0.0 0.0 0.0 0.0 0.0 0.0" pbc="T T T"
Cs       9.59520495      14.68643159       5.07342867      -0.06922523       0.04474600       0.39760706       1.30035819      -1.88067849      -1.05594693
Cs       3.39155429       9.65313679       4.83119713      -0.17212727       0.31471765      -0.09613242       2.15305046       0.54896247      -3.17154555
Cs       3.27565804      10.70553120      11.58747151      -0.13774986      -0.21927144      -0.04146472       0.77273789      -1.51357656       1.16462033
Cs       9.45722376      15.13666271      11.24282055       0.11940725      -0.04205906       0.16659820      -2.11331196       1.77524929       1.86306694
Cs       9.46080238       8.27551355      11.54951669       0.15625643       0.09332498      -0.05756384       4.22082252       0.43798364      -2.25786594
Cs       3.53691797      16.49126543      11.34424343      -0.10512826      -0.26813192      -0.02043401      -2.91185536       1.00520495       2.51956144
Cs       3.30794092      16.56890239       5.29225047      -0.13471151       0.02484996      -0.32273286       3.61547607      -0.05507859       2.67761702
Cs       9.80508914       9.51200239       7.16628481      -0.14668911       0.06626590       0.03342263       2.85751709      -2.05529314      -1.49517828
Pb      -0.09340296       6.41804812       8.80432988       0.12013564       0.25656174       0.15682611       0.81337651      -2.95145977      -3.31247816
Pb       6.11082231      12.62218152       8.32733489      -0.25455542      -0.20987787       0.08395217       1.61601877      -1.55545076      -0.43742679
Pb      -0.10198019      12.73111349       8.81086527       0.14206975      -0.31138686      -0.01441210      -0.76521063       0.58740270      -5.10401151
Pb       5.92381433       6.49394531       8.62340434       0.32271918      -0.28767273       0.14680357      -0.09990081      -0.11263237      -1.82609550
Pb       0.27036423       6.85107448       2.66815877      -0.31705410       0.07506671      -0.19465154      -5.57473614      -1.55884670       2.22759515
Pb       6.17135978      12.95431204       2.37781032       0.13074321       0.20752397      -0.32278942      -1.17045333      -4.14184406       0.48036307
Pb      -0.33697042      13.03210003       2.71538017       0.05362625      -0.44975338      -0.11131135      -4.36199996       4.38301503      -1.57239343
Pb       6.86244500       6.73810485       2.60236748       0.20224789       0.17089608       0.11380348       0.96574892      -0.93749702       0.00679128
I       24.45259947       9.46278294       9.39087948      -0.00378364       0.38043463      -0.07615426      -0.19715913      -1.26864164       2.19338028
I        5.81304417      15.77199720       7.88957188       0.13320144      -0.44444801      -0.03092166       3.09172152      -0.55748879      -3.32304356
I       13.12374019      15.90580514       7.97566919       0.00309728      -0.37092640      -0.20917687       2.36112826       1.38349405      -0.13251962
I        6.07849848       9.44639503       9.57727712       0.16035962       0.35455552      -0.04114083       1.84610678       1.81057518       0.15108387
I        9.37368072      12.39729688       8.47851256       0.27731884      -0.04732974      -0.02588001       1.28098229      -3.06372182       0.96476791
I        3.22443598      19.25558606       8.61487284       0.22006802       0.04178233       0.14338555      -0.89416308       1.96292101      -1.64318312
I        2.94271659      12.38977294       7.74660044       0.38234619      -0.12551120       0.10221857       0.15561535       0.54328295      -0.15625658
I        9.59563699       6.29485560       9.32113996      -0.21059987      -0.01569462      -0.08539995       3.08864864      -0.10205854      -2.03683461
I       12.59472013      16.14082412       3.49929036       0.05985158       0.11357414      -0.31081169      -4.17244185      -4.00956736       1.28752751
I        6.28058221       9.96273693       1.72299551      -0.01523508      -0.27882212       0.01099781       2.08825368      -2.26370362      -1.14786974
I        0.41248600       9.25611041      14.21684714       0.10500004       0.53392876      -0.16202740       0.23068260       1.54008241       2.26382747
I        7.26662816      15.68859704      15.23471306      -0.14864138       0.01937838      -0.00303668       0.82538127       0.09007289       0.25320448
I        3.47298515      12.74796950      15.49240733      -0.00917827       0.00546124      -0.01214126       0.23036049      -0.01558280       0.23691141
I        9.42033231       6.91183873      15.33967137       0.15643148      -0.17761873      -0.16553049      -1.07860891      -1.95246952      -1.84059322
I        9.53136631      13.22554149       2.04823913      -0.12954417       0.01651201       0.15256028      -1.14707441       0.22993299       0.40727491
I        3.07384474      19.12283236       2.03898923       0.18108671       0.16628296       0.25992526      -2.68536928      -0.27008351      -0.53275708
I       24.78689211      18.18507594      11.23360560      -0.05598723      -0.17914057       0.30453047       0.00178988      -3.14452184       0.49730485
I        5.83297616      13.07760600      11.62154064      -0.09541207       0.28434557      -0.47057684      -0.42011496       1.69837954      -1.02563868
I       13.35503655       7.55814093       5.88159445      -0.03215576      -0.23711978      -0.20736671       2.97708397      -2.04351490      -0.14520472
I        6.64946656      11.74223029       5.21506204       0.06097844       0.03824956       0.41928683       2.91986857      -0.94086897      -1.65074805
I       24.26081819      12.36531617       5.55753281      -0.00920815      -0.27226389       0.15561966       3.16305654       0.97923618      -1.36591547
I        5.99162512      19.76391382       5.62028102      -0.08058195       0.06774912       0.05052407      -0.11599015      -0.57593589       0.33928491
I       13.04798098      13.21732361      11.70873021       0.07981760       0.30336261       0.32985232       1.21766112      -5.96605844      -1.36989967
I        6.40121841       5.20334352      11.69248957       0.10228631       0.01172139       0.03389421       0.35576663      -0.80032498       1.09460389
Cs       9.14844729      15.34791820      18.70025416       0.13848646       0.08029094      -0.10846186       0.84979472      -0.04868588      -3.17099813
Cs       3.08727632       9.23658879      17.40500600       0.30617259       0.10938912      -0.03874415      -1.87717780      -1.71190169       2.89173335
Cs       3.41309043      10.03393417      24.39405584       0.07779767      -0.24512146      -0.27979695       0.99304910      -3.41950513      -0.72957203
Cs       9.33944191      16.55682127       0.29270867       0.12032939      -0.17020083       0.01456750       0.86790013      -2.34076812      -1.39984262
Cs       9.75306350       8.90135649      24.95067298       0.09545948       0.17284596      -0.02160079      -0.72613398       1.81643753      -2.85128457
Cs       2.89802548      15.64920204      24.26581844       0.21663244       0.09614421      -0.18290707      -3.66976266       1.09458023       2.06656835
Cs       3.04564826      16.24162538      17.55013546       0.13511466      -0.07789349       0.00736227       2.37941413       1.34201886      -4.94255050
Cs       9.71916568       8.89307629      18.66383047      -0.11782652       0.06408947      -0.11956625      -2.54859464       0.28220526       0.82957788
Pb       0.19597147       6.17790370      21.29241526       0.15229687      -0.38024340      -0.44547543       2.35115194      -2.89850620      -1.19707677
Pb       6.36099713      12.26423106      20.84033276       0.43938600       0.11776140       0.19486135       0.76368037       1.04138697      -0.72477410
Pb       0.26574755      12.25396603      21.24320224       0.00732884       0.06342893       0.11076605       1.27170388      -0.09242989      -0.81314897
Pb       6.64906146       6.17181388      21.00319581      -0.36813217       0.25885570       0.16460383       0.96615169      -1.25876709       1.88176248
Pb      -0.44127923       6.33897676      14.85158960       0.32644088      -0.10845870       0.24462295      -1.85099763      -2.72600272       0.03567533
Pb       6.66929672      12.63445264      14.66484436       0.11786298      -0.34856631       0.06673416       6.25648163       1.11397876       3.61333802
Pb       0.35775887      12.42189068      14.90794796       0.27836167       0.00595344      -0.09799924      -3.35206024       4.17999999      -0.07425902
Pb       6.30608449       6.36270997      14.54835692      -0.29582643       0.23265369       0.04168834       3.78681488       0.52712294      -1.33884722
I       25.02444014       8.93803589      22.03000966      -0.05209896       0.72215411      -0.05267660       2.08357292       1.16929674      -2.33276898
I        5.43333807      15.50761014      20.49669391       0.09887888      -0.17841380      -0.02260638       4.81660017       0.33973867      -2.68273837
I       13.20314320      15.38396789      20.45889177      -0.08993573       0.50380800      -0.19542317       0.53846402      -4.02876490       0.36384781
I        7.39074629       9.33110982      21.82693923      -0.05894443      -0.17710689      -0.10977925       1.07848658       0.92159118      -0.87889158
I        9.59490314      13.52276027      21.88068829      -0.31676914      -0.07210402       0.01192948       1.42400616       1.80328522      -2.03134624
I        3.25689246      18.90610973      21.76311217      -0.48399643       0.01394358       0.00146325      -2.23055922       0.06900471       1.80346063
I        3.50445241      11.60359870      20.81596142      -0.32109936      -0.18175967      -0.23175997       2.62284769       3.43454813       1.19846019
I        9.41761040       5.12523802      20.10395909       0.50473769       0.14520874       0.04097990       3.66096157       0.43096377      -1.01079291
I       11.35462539      15.70152043      15.44646607       0.17086602       0.36194646      -0.06901474      -0.64470278      -1.20765189       2.09138958
I        6.16289588       9.31950901      13.94627868      -0.06791331       0.48809204       0.09171431       1.25565329       1.83626518      -1.20324319
I        0.50890296       9.90964681       1.84606834      -0.32307016      -0.08949417       0.21099886      -3.31894721      -0.81324409       0.93549346
I        6.33924448      16.23890464       3.29546793      -0.01069791      -0.30318023      -0.07831796       1.24915943       0.82258626       0.05703173
I        2.89743064      13.14457845       2.86905337       0.39723624       0.11047646       0.09826732       1.14900972       2.49053026       0.47759587
I        9.59051959       8.23284094       3.67287533       0.09689875      -0.31708620      -0.08767986      -0.27018772       3.23393617       3.43634130
I        9.61633310      11.96404071      13.35160012      -0.01542697      -0.08407305       0.06878317      -1.79685458      -0.00723536       2.23119981
I        3.15348801      18.51718556      14.48312339       0.82909177       0.01178351      -0.04342000      -2.36734858       0.77910202      -0.19408230
I       24.33927989      17.77942225      23.93500683       0.15503856       0.18606894      -0.01335694       6.37166551       2.68202343      -1.42354568
I        6.13164106      12.99150394      23.90831265      -0.10114837       0.10749895       0.42220021      -1.90825618      -0.55034318      -1.12640422
I       13.31794602       6.87389029      18.24384538      -0.03115588      -0.02502952       0.05365702       2.58684222       3.56566524      -1.76642541
I        7.26682448      12.11265419      17.69815621       0.06606693      -0.28068594       0.19121885       0.46207216      -1.95598244       0.95109848
I       25.10416973      11.81149563      17.91036637       0.08497664      -0.11094994       0.15111952      -1.45204241       0.80103508       0.30971970
I        5.92390398      19.51196034      18.03493691       0.03208325      -0.13823176      -0.10479661      -1.90663230      -2.08530624      -0.21449843
I       13.19600347      12.76196639      24.31410678       0.04591489       0.17396942      -0.28562446      -1.31553360       1.79432642       0.07925880
I        7.73374677       5.62993991      24.30050003      -0.17365978      -0.03660322      -0.03638092       1.35529348      -3.48890930      -0.11685130
Cs       9.44153880       3.24749461       6.16229004      -0.01464537       0.06535958       0.18814449      -3.56694859      -1.69530861      -3.00261120
Cs       3.41278988      22.35940565       4.45668019       0.06308045       0.18346903      -0.19807134       1.50084697       0.13430801       0.88438076
Cs       3.04271350      22.44618299      11.46762878      -0.05631640      -0.17633546      -0.21567521       1.69729457       2.18277037      -1.28996205
Cs       9.75704374       3.17636116      12.74397814      -0.24031372      -0.02284729      -0.35272195      -0.78307791      -1.38942214       0.28158696
Cs       9.76587797      21.97066412      12.22799006      -0.22117132      -0.15089171      -0.31345057      -4.90488630       0.03005351      -0.99522673
Cs       2.86612051       3.61923457      11.22617205       0.24766290       0.19484739       0.17645280       0.54890270      -1.95978756      -0.55372457
Cs       2.85029253       4.01222003       4.83773354       0.38379740       0.08235102      -0.05869983      -0.02704481       2.84115618      -2.72218197
Cs       9.57964671      22.09942451       6.01317823       0.16905504      -0.19916313       0.08273050      -1.26200896       1.39428847      -0.14704910
Pb       0.12633834      18.69514170       8.26991021      -0.06706332       0.60223916       0.16964981      -1.94158525       2.61040772      -0.49464716
Pb       6.10381643       0.31245524       8.72090436       0.52019632      -0.23672231       0.07183174       0.16024735       6.33997399      -1.08570036
Pb       0.30765305       0.33723246       8.66311348       0.06897140      -0.21953392       0.30079003       0.68592534       0.21818191      -2.43521549
Pb       6.58387846      18.61814506       8.59341874       0.14278780       0.58301451       0.28594524      -1.14694413       0.31275736      -1.36872273
Pb      -0.27841331      19.42956094       2.40455323       0.18137464      -0.12351897      -0.27765137      -1.47491806       1.29142564      -0.30231610
Pb       6.93957881       0.52910653       2.49940489       0.05658476      -0.34542882       0.37496647      -2.55256280       0.84479268      -2.75619239
Pb       0.31063506       0.46813623       2.63701571      -0.52294550       0.16480118      -0.77502128       1.41561305       4.97794816      -1.19618859
Pb       6.49609704      19.25201275       2.74375981      -0.07933743       0.09607890      -0.23935999       2.58523383      -2.70246115      -0.19396875
I       25.13716843      22.05365766       9.16970699      -0.16278022      -0.27932499       0.02411511       0.02372682       0.14790264       1.16537551
I        5.69127201       3.30761685       7.70733981      -0.18547141       0.07772837      -0.04634816       4.26657603      -0.22686524       0.12605978
I       13.15527220       3.39889431       8.21863261       0.07178239       0.26661560      -0.23794282       0.06355922       2.28684781      -1.05242521
I        6.70739588      21.85212071       9.00121770       0.23987051       0.12592603       0.22816060      -1.60711120      -1.81407099      -1.86097679
I        9.31804313       0.81245463       9.26847842       0.24849784       0.04291493       0.08477259      -0.02967270      -1.76275384       0.44093532
I        2.99157304       7.07339093       9.48071178       0.06484930       0.08484620       0.06581419       0.49452683       0.39693900      -0.73844946
I        3.47091290      23.97006602       7.94091700      -0.70394350       0.13124022      -0.03337902       0.59504481      -1.73409679       1.25538867
I        9.61977593      18.25876676       7.39605248      -0.34722919      -0.09082400      -0.16381357       1.60563848       0.39134555      -1.76056008
I       12.09467744       3.72128626       3.40517752      -0.17968357      -0.19193595       0.01082832      -3.22366999      -1.88136706      -1.03874167
I        6.18693666      22.43899533       1.75287414       0.07772173      -0.34446458      -0.00069376       3.11563116      -0.64163828       1.75947899
I        0.17886192      21.84444783      14.00559047       0.18468339      -0.05289408       0.04118654      -0.01616508      -1.88545268       3.83951136
I        6.26057891       3.23883306      15.23829614       0.12155955      -0.34754956       0.11174690       4.50383002       1.77383024       0.91874693
I        3.13593113       0.66057630      15.86777590       0.00991324      -0.15667501      -0.00635888       1.01289348      -0.63940060      -2.94242671
I        9.66879471      19.94277592      15.69618337      -0.37089636       0.12485995      -0.09285341       0.15913971      -3.32390155      -0.03998233
I       10.18676507      24.89429928       1.55383206      -0.64773030      -0.15654767       0.04038522       1.71609333      -1.83360291      -1.47792365
I        3.44892370       7.32849391       2.05422011      -0.17907584      -0.28123412      -0.02107218       0.88911731      -3.03332975      -1.82555837
I       24.10063594       5.72858135      11.58715771      -0.13046168      -0.13998979       0.21603557       1.40711451      -1.03632083      -2.65428883
I        5.34380128       0.57271444      11.84343275       0.11529032       0.09857594       0.01151524      -1.64539486      -0.01892525      -1.30557734
I       13.86455324      19.97822400       5.25470269      -0.09516692      -0.00819821       0.06259241       0.89777181       0.32701104      -0.06544368
I        6.75840485      24.25284283       5.29530205       0.02460269       0.30024425       0.15315847       3.35199840       0.46768912       0.77027734
I       25.43719108      24.43208751       5.10784951      -0.13633838      -0.06431748       0.38387764       2.89337253      -0.41411418       0.73907196
I        6.04988142       7.52165712       5.80452535       0.02514070      -0.26694185      -0.47857504       3.08383962       0.43528592      -3.39833373
I       13.37080915       1.25389489      11.67028416      -0.11266204      -0.10819026       0.34327447      -1.54190402       1.01754912       0.98856994
I        7.24931419      18.18196498      11.81762307      -0.19680173       0.22521131      -0.13431022       1.46569392       0.49063218      -0.04734474
Cs       8.86781672       2.23030762      17.66822213       0.28415430      -0.04450446       0.17734437      -3.82700706      -1.95573744      -1.17464249
Cs       3.20363397      21.84380256      17.48405151      -0.15756098       0.26395210       0.02628979       0.58906643       0.61216360      -1.43468582
Cs       3.64539399      22.06111694      24.04788417      -0.16700906       0.21655648      -0.31245420       4.69409982      -1.91628226      -3.73280740
Cs       9.69225189       3.05113928      -0.65248304       0.01938967      -0.14674065       0.06125828      -0.00140740       1.84582095      -1.42007993
Cs       9.46453090      20.27687699      24.50502194       0.10557751       0.34267540      -0.12216336       0.96785326       1.59383929       0.49639732
Cs       4.37678339       2.92955876      24.09605803      -0.49490003       0.40806619      -0.15264265      -0.31324876       1.91107199       0.68254789
Cs       3.49264411       4.33429407      17.42436448      -0.17726017      -0.06245922       0.29218688      -0.40245605      -2.49518052      -2.66161353
Cs       9.62451378      22.05763011      19.10933646       0.05034440      -0.12202385      -0.09550321       0.57942272      -1.09727591      -2.28304993
Pb      -0.00292308      18.71562822      20.85565307       0.03102349      -0.17937572       0.27808133       2.65238620      -1.93145709       0.34619740
Pb       6.12581866      -0.17373286      21.14250761       0.33897650      -0.00580105      -0.33235215       1.97503292       1.47738736      -3.82908407
Pb      -0.06906451       0.23905613      21.32056747       0.06332276      -0.02469755       0.01752540      -0.40564565       1.05837109       0.15563150
Pb       6.19036616      18.45493718      21.05985066      -0.02617344       0.09572006       0.01254796       1.12361093      -2.84854031       2.37948442
Pb       0.21710519      18.56747469      14.39794785      -0.40114936       0.42990970       0.46209102      -1.68264547      -1.32155488      -1.97947192
Pb       6.23521640       0.01411384      14.98792268      -0.14437043      -0.09754024      -0.27988049      -2.26064153       1.93643323       0.07804207
Pb       0.24108021       0.18562930      15.11502500      -0.36439540      -0.14363108      -0.04604925      -3.12055530       2.58447675       1.03572921
Pb       6.71091387      18.97344566      15.03051742       0.01176166      -0.37595573      -0.19684268      -3.31361234      -3.02174792       0.46971868
I       24.99441567      21.76563664      21.29390897      -0.21143829      -0.28829449       0.27066369      -0.14738444       2.42043698       0.15941897
I        6.07139927       3.07041140      20.39838791      -0.09279826      -0.05788137       0.02513196       1.02285707      -1.05428003      -0.35962771
I       13.16912301       3.05226160      20.72468460      -0.00342297      -0.01065250      -0.20630898       0.45090958       1.93300611       2.02960360
I        6.55270377      21.60060481      21.74677610       0.14817859       0.20165037       0.09955634      -3.97006187      -3.14670567      -4.43186394
I        9.70061938      -0.03577227      20.92459249      -0.49747091       0.02757526       0.00874045       0.42865366       0.89695468      -2.71582424
I        3.30245096       6.61589114      21.72539055       0.33691888      -0.09487707       0.11803459       1.36105086      -1.18430053      -0.52750890
I        3.15112991      24.74048152      20.71133873       0.38749005      -0.31236909       0.01585655      -4.21527561       0.68991369       1.49379895
I        9.41006852      18.62941745      20.70563669       0.33710366      -0.18028338       0.09318135       2.28680401      -1.65545524       0.81970466
I       12.03908620       3.27907878      15.55431251       0.14279839       0.17356396       0.16976449       3.63812589      -2.93619073       0.30428763
I        5.43643066      21.69612418      14.03022430       0.27727388       0.43834509       0.07833750      -0.69227106       0.30532844      -1.40211051
I        0.19369973      22.23986588       1.02637649       0.15665007       0.24718647       0.26148964       2.57252065       0.08140947      -0.63248306
I        7.01241310       3.53431453       3.12120831       0.06610823       0.66682659       0.02762326       1.72261035       3.86082344      -0.15975840
I        3.38886663       1.00215666       2.09152814       0.57848693      -0.15760061       0.13415434       0.44626266      -0.27007282       1.68077847
I        9.87337870      19.31925019       3.14588504      -0.55141503      -0.09432697      -0.17669752       0.18420716       0.84436095      -1.50879109
I        9.51435751      24.96210976      14.41684650       0.00731443      -0.08949518       0.16419251       0.08182043      -0.10380218       2.02271743
I        2.85383028       6.41929508      14.30834585       0.29800976       0.00767716      -0.00196531      -0.39005047      -1.56760782       0.36617697
I       24.94843247       5.24916592      24.05757651       0.22796284       0.06119400       0.67230940       1.35105217      -1.75930741      -1.64969465
I        6.97553592       0.27559763      24.24774304      -0.23638902       0.20436567      -0.05570620       1.55897974      -0.50849711      -0.85967223
I       12.85599118      19.06704365      17.64317428       0.29954109       0.20507202       0.44356276       1.68239273      -0.60921381      -1.46146239
I        6.60624335      23.93135702      17.82167012      -0.07544046       0.07839953      -0.17741686       0.48462371      -1.72169815       0.71676690
I       24.84569233      23.79063543      17.75041017       0.06278064       0.27026120      -0.12363769      -0.38065581      -1.20856757       0.75160947
I        6.43569017       6.89432836      17.92118855      -0.21597856       0.08909863       0.22258055      -0.22277053      -2.78264183      -0.06146574
I       13.43025175       0.66749158      24.34026100      -0.17515244      -0.13082360      -0.57553305       2.51501833       1.75533136       4.20528740
I        6.81553255      18.32910416      24.21180367      -0.07690250      -0.28685320       0.11843543       1.50692717      -0.86699941      -1.23182071
Cs      22.42617884      15.27553416       5.48556237      -0.18626072       0.09485322       0.10689741       3.86322355      -0.91705774      -1.05664102
Cs      16.13505086      10.17424276       4.74563347      -0.26950911       0.04975806       0.34443097       3.41628700      -0.11801212      -2.73910539
Cs      15.68652905      10.55343248      11.34799360       0.18311270      -0.35311905       0.03906737       3.66630063       1.28256474      -1.85385714
Cs      22.18291017      15.62401061      13.09083671      -0.06128178       0.05001045      -0.18048212      -1.23348178       0.33242890       0.81762668
Cs      21.95573797       9.69339345      12.50395223       0.05570893      -0.13993448       0.01278469      -0.35041835       1.86600255      -3.33044908
Cs      16.02894338      15.56506761      10.37668508      -0.15307547       0.09044116       0.23461982      -3.96718809       1.24506983       2.83525476
Cs      16.16196438      16.78435268       5.43136196      -0.27525490       0.03736085      -0.18793809       1.31261450       0.59661109       2.12463969
Cs      21.96934622       8.96763988       5.87892494       0.00792453       0.32091870      -0.10997575      -0.20503112       0.24000695       0.47059650
Pb      12.99363618       6.48579243       8.89259838      -0.01074727      -0.14499094      -0.04846768       2.53701945      -4.23169276       1.59210327
Pb      19.43446302      12.75848005       8.48097462      -0.20872362      -0.45834711       0.41413125       5.09641704      -0.17157886       1.06794818
Pb      12.82661492      12.74400715       8.75466766       0.22326800       0.00621164      -0.81677461       2.97268801       5.69046002       3.84750092
Pb      19.27225733       6.30561279       8.73759022      -0.31675295       0.35524262      -0.18017321      -0.44663653      -4.31815870      -4.63571015
Pb      12.75406691       6.53951531       2.65642910      -0.53384819       0.59898503       0.36612120       6.70183892      -0.91305558       1.68288907
Pb      18.71000500      12.92322685       2.29228126       0.47321784      -0.09669120       0.09664219       4.26064046       1.58093428      -3.59809336
Pb      12.89053026      13.13251386       2.42390519      -0.47575845      -0.17023114       0.44285805      -2.31189368      -2.13299239       3.48395168
Pb      18.81069366       6.67559982       2.60694982      -0.21107389      -0.08699733      -0.07204189       0.07336625       1.73230117      -0.06197861
I       13.08234736       9.57476835       9.34537269      -0.32207154       0.14005625       0.35047087       1.02690996       3.31741141       1.73239597
I       18.59500364      15.74742286       7.62502431       0.14273926      -0.11434206       0.01393567       1.91950358      -2.08699387      -0.25139204
I        0.74760409      15.82418937       7.94586120      -0.01098470      -0.13498265      -0.10217685      -0.57035617      -5.08784571       1.89043640
I       19.79286677       9.54162813       9.48128176      -0.11065538       0.19557623      -0.33045924       0.78055792       1.34436361       0.63837765
I       22.30102994      14.12298899       9.25483887      -0.21510717       0.00636102       0.19910492       1.48820491      -2.44188877      -1.95583112
I       15.74830261      19.22738258       9.10399859       0.14432822       0.03428155      -0.03089804       0.06038202      -2.34877349       0.39679683
I       16.26454924      12.50969598       8.37764705      -0.65802096       0.10983581      -0.22828194       2.11019539       1.19703743      -0.04436586
I       22.10242285       5.92345755       7.55782360       0.18892985      -0.30754283       0.02239698      -0.13666537       3.38512506      -0.49788840
I       24.36451216      16.15348329       2.41607188       0.11137593       0.07783095       0.22402404      -1.17914559       0.23689824       0.86905266
I       17.99765084       9.85965088       1.63541951       0.16096923      -0.01895984       0.07985343      -0.51526497      -1.05173671       1.94975366
I       13.02611294       9.62247156      13.95463215      -0.06020530      -0.22257826       0.32376739       1.21613101       1.64024384      -2.63157173
I       19.47495562      15.67089456      15.53619623      -0.13261181      -0.01610231      -0.09369645      -0.97999679       3.03738835       1.25043866
I       15.72806304      13.32716337      15.01145870       0.13174622      -0.20658473       0.01764148       4.77113345       1.50241588      -1.57475055
I       21.84973593       7.57006684      15.74001490       0.00871629      -0.01682264      -0.00214311      -0.82830824       2.55913107       1.11591120