320
Lattice="31.392636507215773 -0.04481615214523286 0.09492011689125937 0.1392903615087138 28.887165468702893 0.25788863917263216 -0.2799812260619887 -0.14238296324623026 16.953981605175922" Properties=species:S:1:pos:R:3:forces:R:3:momenta:R:3 pbc="T T T"
Cs       1.46067135       4.07878764       4.11110407      -0.08195304      -0.06216613      -0.00476906      -0.23080559      -0.44952897       4.05981520
Cs       5.45797974       6.61461051       8.59758791      -0.06679481       0.03551346      -0.09053437       0.46268193      -0.47739116      -0.75404710
Cs       1.30330085      11.43306624      16.99671536       0.03321378       0.00408833      -0.01027614      -2.90472394       0.73906325      -1.05588131
Cs       5.34290248      14.07567950       3.94681853       0.01181051      -0.08042431       0.10033971      -0.60899045      -1.66468954      -1.18580231
Cs       9.33644769       4.44691865       4.06476456       0.14753018      -0.10284245       0.03018962      -0.34602514      -1.67713683      -1.75551913
Cs      13.35027202       6.74090923       8.53356617       0.05359626      -0.01904624      -0.04690233      -0.41500294      -0.23797757      -0.63656870
Cs       9.53530545      11.34214270       0.15956682      -0.01728160       0.01715742      -0.04515668      -1.15047681       1.11390390      -0.09488028
Cs      12.95350803      13.78783483       4.71568975       0.14576756       0.09789537      -0.13199949       0.16205089      -0.69437181      -0.79656752
Pb       2.86112832      16.05137802       8.68125012      -0.21994080      -0.12739671      -0.05118946      -0.41472148       6.10527088       2.42987451
Pb       6.73795133      16.37322331       8.21298840       0.31080205      -0.32018849       0.12908484      -0.18546302       0.06509580      -0.35214698
Pb       4.03029544       8.97479795       4.35789318       0.18290283      -0.09355323      -0.02250738       1.58648343       1.92346441      -2.96451390
Pb       0.32883838       8.90459986       3.95768658      -0.69375410       0.27288604       0.05860309      -0.42102166       1.76396065      -0.77833335
Pb      10.73361697      16.37782494       8.59376629       0.05215956      -0.03750733      -0.17222034       3.03866421       1.23499178       0.75887815
Pb      14.54470160      16.07118063       8.77986273       0.01545781      -0.02144327      -0.10874202      -1.71480926       0.00886214      -0.32564692
Pb      12.06355928       9.03075284       4.42589290      -0.01764433       0.08233693      -0.26553951       0.57711708      -2.02569015      -0.11059953
Pb       7.97474030       9.20813450       4.16931209       0.05897002      -0.52543130       0.17074930      -1.13550671      -3.60830469       0.42075572
I        5.19658813       2.97432513       2.10293050      -0.35805958       0.08689923       0.16324607      -0.76164910       1.24843315      -0.79118654
I        2.35136259       8.05015028       1.71920560      -0.02739254      -0.18261293      -0.10019661       0.89154218      -1.37835387       4.18927507
I        4.36950167       3.11873844       6.26175183       0.03507531       0.24461609      -0.27452781       0.30103498       1.24756975      -2.30612268
I        1.83537473       7.46903352       6.22770648       0.25428433      -0.20671078       0.13799965      -0.80249857       0.74554959      -0.63909507
I        6.13802314       6.37365339       4.12130560      -0.03741035       0.43829930       0.00658453       1.86907913      -0.71057590       0.80600491
I        0.76343020       4.07678898       8.70298488       0.08272485       0.37334962       0.09027359       1.43150805      -1.45634715       2.58494068
I        5.95337201      10.03830185       6.59943225       0.21396721       0.05397017       0.02951574       0.84687079       0.00937077       0.87489178
I        0.65226813      15.02781941       6.43178862       0.33344831      -0.10865199      -0.15664011       0.60737423      -1.27276052      -2.29334709
I        5.93340449      10.53748847       2.19571806       0.01305035      -0.00728764      -0.03371684      -1.60399936      -1.91866100       2.48587299
I        1.01992892      14.55937208       2.29638465      -0.04395993       0.12965294      -0.00525005       2.94568511       0.51094637       0.04982487
I        4.90824376      13.60483184       8.23173387      -0.03192851       0.02663583      -0.03687832      -1.16795639       0.30379983       1.88546640
I        2.09480655      11.49113764       4.67358362       0.24377190       0.09614796      -0.05783402       1.76307551       1.96971306       1.63117329
I       12.84048451       3.00599427       2.36168386      -0.29603040      -0.01797582       0.06840743       1.32564753       0.37439958       2.06695971
I       10.19142761       7.89457476       2.04354518      -0.15263422       0.09227005       0.06006350       0.42665616       0.45585471       2.04639758
I       12.75249306       3.24560648       6.30355454      -0.03158098      -0.07958308       0.28726501      -0.34067842      -1.60078720       0.55499454
I        9.96290753       7.50698868       6.32742792      -0.01602037       0.15327215      -0.02068121       0.55300012      -0.49240396      -1.01924001
I       13.95201183       6.36019859       4.00677185      -0.05238031       0.29837096       0.04401775       0.61394588      -1.90305146      -0.74067494
I        8.53196971       4.43835539       8.83702926       0.10677633       0.07576361      -0.11922339      -1.43320427      -1.79473300       2.24192706
I       14.20876247      10.40343716       6.37617475      -0.02102140      -0.17245470      -0.09955144      -0.00970851       2.15118140       0.30392358
I        8.95557735      15.57072251       5.93930211      -0.03306479      -0.09936451      -0.08885595      -2.07691817      -0.30982177       0.69717016
I       13.86313886      10.40637164       1.93747494      -0.03349781      -0.13984513       0.28621664      -1.29203896       1.58047262       0.33030444
I        8.72564617      14.79038626       1.81817195      -0.02495789      -0.06184459       0.15204524       0.42806522      -0.85774361      -1.07347676
I       12.42629152      13.63310063       8.35286844      -0.09468609       0.05605304       0.05730141      -0.32540088       0.69869760       0.55699805
I        9.93669763      11.63616528       4.41073744       0.05668472      -0.16884789       0.07128942       1.49525094       1.22237948       1.75129112
Cs       1.32068074       4.00759616      12.58809487      -0.08195304      -0.06216613      -0.00476906      -0.23080559      -0.44952897       4.05981520
Cs       5.59797035       6.68580199       0.12059711      -0.06679481       0.03551346      -0.09053437       0.46268193      -0.47739116      -0.75404710
Cs       1.44329147      11.50425772       8.51972455       0.03321378       0.00408833      -0.01027614      -2.90472394       0.73906325      -1.05588131
Cs       5.20291187      14.00448802      12.42380933       0.01181051      -0.08042431       0.10033971      -0.60899045      -1.66468954      -1.18580231
Cs       9.19645708       4.37572717      12.54175536       0.14753018      -0.10284245       0.03018962      -0.34602514      -1.67713683      -1.75551913
Cs      13.21028141       6.66971775      17.01055697       0.05359626      -0.01904624      -0.04690233      -0.41500294      -0.23797757      -0.63656870
Cs       9.39531484      11.27095122       8.63655762      -0.01728160       0.01715742      -0.04515668      -1.15047681       1.11390390      -0.09488028
Cs      12.81351742      13.71664335      13.19268055       0.14576756       0.09789537      -0.13199949       0.16205089      -0.69437181      -0.79656752
Pb       3.00111893      16.12256950       0.20425932      -0.21994080      -0.12739671      -0.05118946      -0.41472148       6.10527088       2.42987451
Pb       6.59796072      16.30203183      16.68997920       0.31080205      -0.32018849       0.12908484      -0.18546302       0.06509580      -0.35214698
Pb       3.89030483       8.90360647      12.83488398       0.18290283      -0.09355323      -0.02250738       1.58648343       1.92346441      -2.96451390
Pb       0.18884777       8.83340838      12.43467738      -0.69375410       0.27288604       0.05860309      -0.42102166       1.76396065      -0.77833335
Pb      10.59362636      16.30663346      17.07075709       0.05215956      -0.03750733      -0.17222034       3.03866421       1.23499178       0.75887815
Pb      14.68469221      16.14237211       0.30287193       0.01545781      -0.02144327      -0.10874202      -1.71480926       0.00886214      -0.32564692
Pb      11.92356867       8.95956136      12.90288370      -0.01764433       0.08233693      -0.26553951       0.57711708      -2.02569015      -0.11059953
Pb       7.83474969       9.13694302      12.64630289       0.05897002      -0.52543130       0.17074930      -1.13550671      -3.60830469       0.42075572
I        5.05659752       2.90313365      10.57992130      -0.35805958       0.08689923       0.16324607      -0.76164910       1.24843315      -0.79118654
I        2.21137198       7.97895880      10.19619640      -0.02739254      -0.18261293      -0.10019661       0.89154218      -1.37835387       4.18927507
I        4.22951106       3.04754696      14.73874263       0.03507531       0.24461609      -0.27452781       0.30103498       1.24756975      -2.30612268
I        1.69538412       7.39784204      14.70469728       0.25428433      -0.20671078       0.13799965      -0.80249857       0.74554959      -0.63909507
I        5.99803253       6.30246191      12.59829640      -0.03741035       0.43829930       0.00658453       1.86907913      -0.71057590       0.80600491
I        0.90342081       4.14798046       0.22599408       0.08272485       0.37334962       0.09027359       1.43150805      -1.45634715       2.58494068
I        5.81338140       9.96711037      15.07642305       0.21396721       0.05397017       0.02951574       0.84687079       0.00937077       0.87489178
I        0.51227752      14.95662793      14.90877942       0.33344831      -0.10865199      -0.15664011       0.60737423      -1.27276052      -2.29334709
I        5.79341388      10.46629699      10.67270886       0.01305035      -0.00728764      -0.03371684      -1.60399936      -1.91866100       2.48587299
I        0.87993831      14.48818060      10.77337545      -0.04395993       0.12965294      -0.00525005       2.94568511       0.51094637       0.04982487
I        4.76825315      13.53364036      16.70872467      -0.03192851       0.02663583      -0.03687832      -1.16795639       0.30379983       1.88546640
I        1.95481594      11.41994616      13.15057442       0.24377190       0.09614796      -0.05783402       1.76307551       1.96971306       1.63117329
I       12.70049390       2.93480279      10.83867466      -0.29603040      -0.01797582       0.06840743       1.32564753       0.37439958       2.06695971
I       10.05143700       7.82338328      10.52053598      -0.15263422       0.09227005       0.06006350       0.42665616       0.45585471       2.04639758
I       12.61250245       3.17441500      14.78054534      -0.03158098      -0.07958308       0.28726501      -0.34067842      -1.60078720       0.55499454
I        9.82291692       7.43579720      14.80441872      -0.01602037       0.15327215      -0.02068121       0.55300012      -0.49240396      -1.01924001
I       13.81202122       6.28900711      12.48376265      -0.05238031       0.29837096       0.04401775       0.61394588      -1.90305146      -0.74067494
I        8.67196032       4.50954687       0.36003846       0.10677633       0.07576361      -0.11922339      -1.43320427      -1.79473300       2.24192706
I       14.06877186      10.33224568      14.85316555      -0.02102140      -0.17245470      -0.09955144      -0.00970851       2.15118140       0.30392358
I        8.81558674      15.49953103      14.41629291      -0.03306479      -0.09936451      -0.08885595      -2.07691817      -0.30982177       0.69717016
I       13.72314825      10.33518016      10.41446574      -0.03349781      -0.13984513       0.28621664      -1.29203896       1.58047262       0.33030444
I        8.58565556      14.71919478      10.29516275      -0.02495789      -0.06184459       0.15204524       0.42806522      -0.85774361      -1.07347676
I       12.28630091      13.56190915      16.82985924      -0.09468609       0.05605304       0.05730141      -0.32540088       0.69869760       0.55699805
I        9.79670702      11.56497380      12.88772824       0.05668472      -0.16884789       0.07128942       1.49525094       1.22237948       1.75129112
Cs       1.53031653      18.52237037       4.24004839      -0.08195304      -0.06216613      -0.00476906      -0.23080559      -0.44952897       4.05981520
Cs       5.52762492      21.05819324       8.72653223      -0.06679481       0.03551346      -0.09053437       0.46268193      -0.47739116      -0.75404710
Cs       1.37294603      25.87664897      17.12565967       0.03321378       0.00408833      -0.01027614      -2.90472394       0.73906325      -1.05588131
Cs       5.41254766      28.51926223       4.07576285       0.01181051      -0.08042431       0.10033971      -0.60899045      -1.66468954      -1.18580231
Cs       9.40609287      18.89050138       4.19370888       0.14753018      -0.10284245       0.03018962      -0.34602514      -1.67713683      -1.75551913
Cs      13.41991720      21.18449196       8.66251049       0.05359626      -0.01904624      -0.04690233      -0.41500294      -0.23797757      -0.63656870
Cs       9.60495063      25.78572543       0.28851114      -0.01728160       0.01715742      -0.04515668      -1.15047681       1.11390390      -0.09488028
Cs      13.02315321      28.23141756       4.84463407       0.14576756       0.09789537      -0.13199949       0.16205089      -0.69437181      -0.79656752
Pb       2.79148314       1.60779529       8.55230580      -0.21994080      -0.12739671      -0.05118946      -0.41472148       6.10527088       2.42987451
Pb       6.66830615       1.92964058       8.08404408       0.31080205      -0.32018849       0.12908484      -0.18546302       0.06509580      -0.35214698
Pb       4.09994062      23.41838068       4.48683750       0.18290283      -0.09355323      -0.02250738       1.58648343       1.92346441      -2.96451390
Pb       0.39848356      23.34818259       4.08663090      -0.69375410       0.27288604       0.05860309      -0.42102166       1.76396065      -0.77833335
Pb      10.66397179       1.93424221       8.46482197       0.05215956      -0.03750733      -0.17222034       3.03866421       1.23499178       0.75887815
Pb      14.47505642       1.62759790       8.65091841       0.01545781      -0.02144327      -0.10874202      -1.71480926       0.00886214      -0.32564692
Pb      12.13320446      23.47433557       4.55483722      -0.01764433       0.08233693      -0.26553951       0.57711708      -2.02569015      -0.11059953
Pb       8.04438548      23.65171723       4.29825641       0.05897002      -0.52543130       0.17074930      -1.13550671      -3.60830469       0.42075572
I        5.26623331      17.41790786       2.23187482      -0.35805958       0.08689923       0.16324607      -0.76164910       1.24843315      -0.79118654
I        2.42100777      22.49373301       1.84814992      -0.02739254      -0.18261293      -0.10019661       0.89154218      -1.37835387       4.18927507
I        4.43914685      17.56232117       6.39069615       0.03507531       0.24461609      -0.27452781       0.30103498       1.24756975      -2.30612268
I        1.90501991      21.91261625       6.35665080       0.25428433      -0.20671078       0.13799965      -0.80249857       0.74554959      -0.63909507
I        6.20766832      20.81723612       4.25024992      -0.03741035       0.43829930       0.00658453       1.86907913      -0.71057590       0.80600491
I        0.83307538      18.52037171       8.83192920       0.08272485       0.37334962       0.09027359       1.43150805      -1.45634715       2.58494068
I        6.02301719      24.48188458       6.72837657       0.21396721       0.05397017       0.02951574       0.84687079       0.00937077       0.87489178
I        0.58262295       0.58423668       6.30284430       0.33344831      -0.10865199      -0.15664011       0.60737423      -1.27276052      -2.29334709
I        6.00304967      24.98107120       2.32466238       0.01305035      -0.00728764      -0.03371684      -1.60399936      -1.91866100       2.48587299
I        0.95028374       0.11578935       2.16744033      -0.04395993       0.12965294      -0.00525005       2.94568511       0.51094637       0.04982487
I        4.97788894      28.04841457       8.36067819      -0.03192851       0.02663583      -0.03687832      -1.16795639       0.30379983       1.88546640
I        2.16445173      25.93472037       4.80252794       0.24377190       0.09614796      -0.05783402       1.76307551       1.96971306       1.63117329
I       12.91012969      17.44957700       2.49062818      -0.29603040      -0.01797582       0.06840743       1.32564753       0.37439958       2.06695971
I       10.26107279      22.33815749       2.17248950      -0.15263422       0.09227005       0.06006350       0.42665616       0.45585471       2.04639758
I       12.82213824      17.68918921       6.43249886      -0.03158098      -0.07958308       0.28726501      -0.34067842      -1.60078720       0.55499454
I       10.03255271      21.95057141       6.45637224      -0.01602037       0.15327215      -0.02068121       0.55300012      -0.49240396      -1.01924001
I       14.02165701      20.80378132       4.13571617      -0.05238031       0.29837096       0.04401775       0.61394588      -1.90305146      -0.74067494
I        8.60161489      18.88193812       8.96597358       0.10677633       0.07576361      -0.11922339      -1.43320427      -1.79473300       2.24192706
I       14.27840765      24.84701989       6.50511907      -0.02102140      -0.17245470      -0.09955144      -0.00970851       2.15118140       0.30392358
I        8.88593217       1.12713978       5.81035779      -0.03306479      -0.09936451      -0.08885595      -2.07691817      -0.30982177       0.69717016
I       13.93278404      24.84995437       2.06641926      -0.03349781      -0.13984513       0.28621664      -1.29203896       1.58047262       0.33030444
I        8.65600099       0.34680353       1.68922763      -0.02495789      -0.06184459       0.15204524       0.42806522      -0.85774361      -1.07347676
I       12.49593670      28.07668336       8.48181276      -0.09468609       0.05605304       0.05730141      -0.32540088       0.69869760       0.55699805
I       10.00634281      26.07974801       4.53968176       0.05668472      -0.16884789       0.07128942       1.49525094       1.22237948       1.75129112
Cs       1.39032592      18.45117889      12.71703919      -0.08195304      -0.06216613      -0.00476906      -0.23080559      -0.44952897       4.05981520
Cs       5.66761553      21.12938473       0.24954143      -0.06679481       0.03551346      -0.09053437       0.46268193      -0.47739116      -0.75404710
Cs       1.51293665      25.94784045       8.64866887       0.03321378       0.00408833      -0.01027614      -2.90472394       0.73906325      -1.05588131
Cs       5.27255705      28.44807075      12.55275365       0.01181051      -0.08042431       0.10033971      -0.60899045      -1.66468954      -1.18580231
Cs       9.26610226      18.81930990      12.67069968       0.14753018      -0.10284245       0.03018962      -0.34602514      -1.67713683      -1.75551913
Cs      13.27992659      21.11330048      17.13950129       0.05359626      -0.01904624      -0.04690233      -0.41500294      -0.23797757      -0.63656870
Cs       9.46496002      25.71453395       8.76550194      -0.01728160       0.01715742      -0.04515668      -1.15047681       1.11390390      -0.09488028
Cs      12.88316260      28.16022608      13.32162487       0.14576756       0.09789537      -0.13199949       0.16205089      -0.69437181      -0.79656752
Pb       2.93147375       1.67898677       0.07531500      -0.21994080      -0.12739671      -0.05118946      -0.41472148       6.10527088       2.42987451
Pb       6.52831554       1.85844909      16.56103488       0.31080205      -0.32018849       0.12908484      -0.18546302       0.06509580      -0.35214698
Pb       3.95995001      23.34718920      12.96382830       0.18290283      -0.09355323      -0.02250738       1.58648343       1.92346441      -2.96451390
Pb       0.25849295      23.27699111      12.56362170      -0.69375410       0.27288604       0.05860309      -0.42102166       1.76396065      -0.77833335
Pb      10.52398118       1.86305072      16.94181277       0.05215956      -0.03750733      -0.17222034       3.03866421       1.23499178       0.75887815
Pb      14.61504703       1.69878938       0.17392761       0.01545781      -0.02144327      -0.10874202      -1.71480926       0.00886214      -0.32564692
Pb      11.99321385      23.40314409      13.03182802      -0.01764433       0.08233693      -0.26553951       0.57711708      -2.02569015      -0.11059953
Pb       7.90439487      23.58052575      12.77524721       0.05897002      -0.52543130       0.17074930      -1.13550671      -3.60830469       0.42075572
I        5.12624270      17.34671638      10.70886562      -0.35805958       0.08689923       0.16324607      -0.76164910       1.24843315      -0.79118654
I        2.28101716      22.42254153      10.32514072      -0.02739254      -0.18261293      -0.10019661       0.89154218      -1.37835387       4.18927507
I        4.29915624      17.49112969      14.86768695       0.03507531       0.24461609      -0.27452781       0.30103498       1.24756975      -2.30612268
I        1.76502930      21.84142477      14.83364160       0.25428433      -0.20671078       0.13799965      -0.80249857       0.74554959      -0.63909507
I        6.06767771      20.74604464      12.72724072      -0.03741035       0.43829930       0.00658453       1.86907913      -0.71057590       0.80600491
I        0.97306599      18.59156320       0.35493840       0.08272485       0.37334962       0.09027359       1.43150805      -1.45634715       2.58494068
I        5.88302658      24.41069310      15.20536737       0.21396721       0.05397017       0.02951574       0.84687079       0.00937077       0.87489178
I        0.44263234       0.51304519      14.77983510       0.33344831      -0.10865199      -0.15664011       0.60737423      -1.27276052      -2.29334709
I        5.86305906      24.90987972      10.80165318       0.01305035      -0.00728764      -0.03371684      -1.60399936      -1.91866100       2.48587299
I        0.81029313       0.04459786      10.64443113      -0.04395993       0.12965294      -0.00525005       2.94568511       0.51094637       0.04982487
I        4.83789833      27.97722309      16.83766899      -0.03192851       0.02663583      -0.03687832      -1.16795639       0.30379983       1.88546640
I        2.02446112      25.86352889      13.27951874       0.24377190       0.09614796      -0.05783402       1.76307551       1.96971306       1.63117329
I       12.77013908      17.37838552      10.96761898      -0.29603040      -0.01797582       0.06840743       1.32564753       0.37439958       2.06695971
I       10.12108218      22.26696601      10.64948030      -0.15263422       0.09227005       0.06006350       0.42665616       0.45585471       2.04639758
I       12.68214763      17.61799773      14.90948966      -0.03158098      -0.07958308       0.28726501      -0.34067842      -1.60078720       0.55499454
I        9.89256210      21.87937993      14.93336304      -0.01602037       0.15327215      -0.02068121       0.55300012      -0.49240396      -1.01924001
I       13.88166640      20.73258984      12.61270697      -0.05238031       0.29837096       0.04401775       0.61394588      -1.90305146      -0.74067494
I        8.74160550      18.95312961       0.48898278       0.10677633       0.07576361      -0.11922339      -1.43320427      -1.79473300       2.24192706
I       14.13841704      24.77582841      14.98210987      -0.02102140      -0.17245470      -0.09955144      -0.00970851       2.15118140       0.30392358
I        8.74594156       1.05594829      14.28734859      -0.03306479      -0.09936451      -0.08885595      -2.07691817      -0.30982177       0.69717016
I       13.79279343      24.77876289      10.54341006      -0.03349781      -0.13984513       0.28621664      -1.29203896       1.58047262       0.33030444
I        8.51601038       0.27561204      10.16621843      -0.02495789      -0.06184459       0.15204524       0.42806522      -0.85774361      -1.07347676
I       12.35594609      28.00549188      16.95880356      -0.09468609       0.05605304       0.05730141      -0.32540088       0.69869760       0.55699805
I        9.86635220      26.00855653      13.01667256       0.05668472      -0.16884789       0.07128942       1.49525094       1.22237948       1.75129112
Cs      17.15698960       4.05637956       4.15856413      -0.08195304      -0.06216613      -0.00476906      -0.23080559      -0.44952897       4.05981520
Cs      21.15429799       6.59220243       8.64504797      -0.06679481       0.03551346      -0.09053437       0.46268193      -0.47739116      -0.75404710
Cs      16.99961911      11.41065816      17.04417541       0.03321378       0.00408833      -0.01027614      -2.90472394       0.73906325      -1.05588131
Cs      21.03922073      14.05327142       3.99427859       0.01181051      -0.08042431       0.10033971      -0.60899045      -1.66468954      -1.18580231
Cs      25.03276594       4.42451057       4.11222462       0.14753018      -0.10284245       0.03018962      -0.34602514      -1.67713683      -1.75551913
Cs      29.04659027       6.71850115       8.58102623       0.05359626      -0.01904624      -0.04690233      -0.41500294      -0.23797757      -0.63656870
Cs      25.23162370      11.31973462       0.20702688      -0.01728160       0.01715742      -0.04515668      -1.15047681       1.11390390      -0.09488028
Cs      28.64982628      13.76542675       4.76314981       0.14576756       0.09789537      -0.13199949       0.16205089      -0.69437181      -0.79656752
Pb      18.55744657      16.02896994       8.72871018      -0.21994080      -0.12739671      -0.05118946      -0.41472148       6.10527088       2.42987451
Pb      22.43426958      16.35081523       8.26044846       0.31080205      -0.32018849       0.12908484      -0.18546302       0.06509580      -0.35214698
Pb      19.72661369       8.95238987       4.40535324       0.18290283      -0.09355323      -0.02250738       1.58648343       1.92346441      -2.96451390
Pb      16.02515663       8.88219178       4.00514664      -0.69375410       0.27288604       0.05860309      -0.42102166       1.76396065      -0.77833335
Pb      26.42993522      16.35541686       8.64122635       0.05215956      -0.03750733      -0.17222034       3.03866421       1.23499178       0.75887815
Pb      30.24101985      16.04877255       8.82732279       0.01545781      -0.02144327      -0.10874202      -1.71480926       0.00886214      -0.32564692
Pb      27.75987753       9.00834476       4.47335296      -0.01764433       0.08233693      -0.26553951       0.57711708      -2.02569015      -0.11059953
Pb      23.67105855       9.18572642       4.21677215       0.05897002      -0.52543130       0.17074930      -1.13550671      -3.60830469       0.42075572
I       20.89290638       2.95191705       2.15039056      -0.35805958       0.08689923       0.16324607      -0.76164910       1.24843315      -0.79118654
I       18.04768084       8.02774220       1.76666566      -0.02739254      -0.18261293      -0.10019661       0.89154218      -1.37835387       4.18927507
I       20.06581992       3.09633036       6.30921189       0.03507531       0.24461609      -0.27452781       0.30103498       1.24756975      -2.30612268
I       17.53169298       7.44662544       6.27516654       0.25428433      -0.20671078       0.13799965      -0.80249857       0.74554959      -0.63909507
I       21.83434139       6.35124531       4.16876566      -0.03741035       0.43829930       0.00658453       1.86907913      -0.71057590       0.80600491
I       16.45974845       4.05438090       8.75044494       0.08272485       0.37334962       0.09027359       1.43150805      -1.45634715       2.58494068
I       21.64969026      10.01589377       6.64689231       0.21396721       0.05397017       0.02951574       0.84687079       0.00937077       0.87489178
I       16.34858638      15.00541133       6.47924868       0.33344831      -0.10865199      -0.15664011       0.60737423      -1.27276052      -2.29334709
I       21.62972274      10.51508039       2.24317812       0.01305035      -0.00728764      -0.03371684      -1.60399936      -1.91866100       2.48587299
I       16.71624717      14.53696400       2.34384471      -0.04395993       0.12965294      -0.00525005       2.94568511       0.51094637       0.04982487
I       20.60456201      13.58242376       8.27919393      -0.03192851       0.02663583      -0.03687832      -1.16795639       0.30379983       1.88546640
I       17.79112480      11.46872956       4.72104368       0.24377190       0.09614796      -0.05783402       1.76307551       1.96971306       1.63117329
I       28.53680276       2.98358619       2.40914392      -0.29603040      -0.01797582       0.06840743       1.32564753       0.37439958       2.06695971
I       25.88774586       7.87216668       2.09100524      -0.15263422       0.09227005       0.06006350       0.42665616       0.45585471       2.04639758