320
Lattice="25.121854697261806 -0.05977452525107978 -0.12957468506993428 0.07192418218408468 24.82535238426277 -0.21579304325525844 0.12447059888337542 -0.778188195725328 24.81728374174729" Properties=species:S:1:pos:R:3:forces:R:3:momenta:R:3 energy=-980.4355047575667 stress="0.0 0.0 0.0 0.0 0.0 0.0 0.0 0.0 0.0" pbc="T T T"
Cs       9.43265830      15.14919592       5.68859749       0.02764591       0.00425068      -0.04286420       1.60340644       0.96849511      -1.88707392
Cs       3.19781123      10.08933290       5.15843337      -0.05415037      -0.00981822      -0.17082390       0.40023658      -0.13033581       0.83772186
Cs       3.17267990       9.92027142      11.38039964       0.06273429       0.01629783       0.02546878       0.68850236      -1.42768429      -0.06432503
Cs       9.24826528      15.44582956      12.54557044       0.12005482       0.04552038      -0.10591149      -1.55478347       1.24002614       0.51800181
Cs       9.35731209       9.19364854      12.07740081       0.04728936      -0.06454143       0.06041350      -0.29334128       0.45975325      -1.55005257
Cs       3.40354515      16.26574029      10.97979846      -0.06252036      -0.02997058       0.17692794      -0.40843357       0.34483038      -0.34118891
Cs       3.10044206      16.81869448       5.55041670      -0.00427768      -0.07959083      -0.09081518      -0.70617006       0.35599622      -1.26637223
Cs       9.47378046       9.47102101       5.98562147       0.10120456       0.00002949       0.14227840       0.32448929       2.27662646       1.35925888
Pb       0.02397797       6.38398110       8.57355761      -0.15266875       0.11214919       0.04834758      -0.14237085      -1.24660469      -1.48773604
Pb       6.29587673      12.79520069       8.66164555       0.08001753       0.00901179      -0.27784701       0.45763424       0.92965996      -0.78764168
Pb       0.15697947      12.69468891       8.85277121      -0.33414612       0.16513632      -0.01830359      -1.47288704       3.07167109      -0.75532488
Pb       6.42091202       6.67133425       8.63714181       0.25193570      -0.55669461      -0.09900885       1.61650579       1.74226438       4.86318691
Pb       0.12746460       6.68890076       2.29880388      -0.07218617       0.14004636       0.21883286      -1.20261092       0.81270683       2.55986355
Pb       6.20925830      12.90620336       2.45903192       0.06193012       0.15814504       0.16601174       2.60017252      -1.16447865      -3.58450545
Pb       0.07617678      13.01583112       2.85220045       0.05966841      -0.17657429      -0.66888469       1.43979208       4.00359121       1.83335670
Pb       6.22709432       6.69300360       2.54218748       0.27436085      -0.06747273      -0.03772745      -1.59154179       0.11183849       3.54582604
I       24.96824697       9.55822355       9.42556712      -0.13661824       0.01620253      -0.07783596       1.12568502       1.02206514       0.74995678
I        5.79165740      15.85222221       7.99041883       0.05320936      -0.04228450       0.00516441       1.97534074      -2.01382467      -0.78486378
I       13.38282609      15.83366014       7.93208703      -0.19782279       0.15705025      -0.00970814       0.00985570      -0.65089481      -1.26831090
I        6.87076852       9.64484109       9.25755917       0.02580266       0.00844344       0.05350606       1.45783665       0.20326770       0.38442928
I        9.45188788      13.51067236       8.99293369      -0.22906310      -0.04952359       0.15474292       0.16734807      -0.67917899      -0.47170380
I        3.17665381      19.58464224       8.90122977       0.26058882      -0.06571826       0.01994121       1.21052421       0.39526970       0.32973087
I        3.16782877      12.27281950       8.13348140       0.08322088       0.04565290       0.10833095      -0.18026096      -0.81305693       2.17574194
I        9.62582743       5.90297516       7.69903282      -0.23742005       0.19503725       0.14529554      -2.17610312       1.56583985      -0.75310455
I       11.95142244      16.02017060       3.04418141       0.15359699      -0.02870998      -0.04639461      -0.41483990       1.42424629      -0.45933320
I        5.82974508       9.83152130       1.77744240      -0.07724969      -0.09118039      -0.05683915      -1.63880185      -0.60090402      -2.23255757
I        0.77377029       9.51523561      14.35642378      -0.11928293       0.08413730      -0.01862871      -0.72101417       0.87419117       1.21445781
I        6.97547721      15.75026254      15.23462650      -0.10685539      -0.08259849       0.16979279      -1.67672247      -0.40157425      -0.43217015
I        3.29634698      13.06919620      15.77796775      -0.14909441       0.14104389      -0.02794591      -1.85174343       0.53267584      -0.48339707
I        9.25692695       7.18880744      15.38803380       0.15441076      -0.10829825      -0.10471491       0.10551257      -1.06226985       1.44378435
I        9.42629007      12.59584622       1.88590772       0.13309703      -0.08976380       0.07073758      -1.97759051       2.74303910      -0.62841423
I        3.26642134      18.40764525       2.17398334      -0.23797598       0.09869633      -0.11759477       1.72746304       0.04219309      -0.74887869
I       24.96167247      17.89378874      11.72417922      -0.05666077       0.08337075       0.04313724       0.91296114      -0.04427862      -0.05316156
I        5.75798393      12.97321771      11.68072718      -0.09162231       0.21682568       0.30971640       0.23824606      -2.24510031       3.58532004
I       13.27608446       7.68454081       5.52532992       0.04953942      -0.19535147       0.23646703      -1.14735174      -0.90590320      -0.44791848
I        6.61088862      11.92923231       5.52535188       0.06137576       0.11774165       0.03619845      -1.34429542      -0.51623695      -1.04505664
I       24.67569099      11.96239929       5.55122641       0.08086839       0.06144515       0.15160308      -1.26057834      -3.49341470       1.43811215
I        5.70449657      19.72670264       5.54687401       0.03872961       0.07157011       0.02442995       2.70280714       2.66406429       0.05074042
I       13.05239145      13.48697341      11.83758331      -0.22681950      -0.18927717      -0.25009146       1.62310963       0.41412830      -1.70447602
I        6.72115796       5.65679917      11.66524430       0.13105829       0.00091456       0.20241997      -1.69695227       0.38989836       2.29821353
Cs       9.32150996      14.76232986      18.23242505       0.06518585      -0.03668488      -0.03323166       0.62351907       2.16862478       1.71941198
Cs       3.43883271       9.66049006      17.53265791      -0.03593754       0.19632581       0.02360872      -1.12320768      -0.15417131      -0.35299720
Cs       3.22454901       9.96920938      23.77165273      -0.06757973      -0.11851342       0.17300435      -0.90362629      -1.90964971      -2.08256222
Cs       9.47320827      15.79149753      -0.21293168       0.03459844       0.03445062       0.00993816       2.85980901      -1.24369186       2.02718902
Cs       9.35926831       8.41715417      24.84732789      -0.04701614       0.01621430      -0.15781471       1.04705982       1.87125521       1.73177831
Cs       3.02791644      15.61550984      23.76681372       0.13480923       0.12045485      -0.19913618      -0.01622449       0.37130303      -0.76282652
Cs       3.36646720      16.43138208      18.00933289      -0.11009139      -0.01850206      -0.05418865       0.38994619       0.35467816      -0.04334248
Cs       9.22849927       9.00702607      18.73874965      -0.00089097       0.10009108      -0.00126927       0.20239602       0.66125790       0.67392069
Pb       0.10844629       6.21860573      21.10382035       0.27327544       0.28231455      -0.01725700       2.14364194       2.84700328       2.10075400
Pb       6.30421525      12.17782257      21.23160208       0.07043687       0.20749377      -0.05750434      -0.68943382       1.05317096      -1.29126938
Pb      -0.05524246      12.38128333      21.21175996       0.02206715       0.08539489       0.08627283      -0.91842817      -2.50085121      -2.36677039
Pb       6.46536540       5.83874308      21.19348166      -0.05945002       0.41670591       0.01174539       3.86142209       2.81444119      -0.69992491
Pb       0.12612705       6.42580863      14.92629840       0.00320587      -0.07888112       0.16542601      -2.75714281       1.74366371      -2.36457370
Pb       6.26697325      12.53736789      14.92739210       0.03263024      -0.09085869       0.02583062       1.85634806      -3.46323741       0.64301126
Pb       0.26211654      12.60387273      14.98054012      -0.27430378       0.19799979       0.15914056      -0.88543536       1.04433285       1.83027889
Pb       6.30202389       6.12024345      14.83987071      -0.06659908       0.42887601       0.15871847      -1.67546809       1.16870876       1.65510754
I       24.53388626       9.25908456      21.70212592       0.13758473      -0.12966406      -0.09455151       0.57059841      -0.08759919       0.40358298
I        6.16783357      15.41503856      20.21668043      -0.06293475      -0.13633242       0.17147921       0.40840342      -0.40333378       2.79153407
I       12.87220358      15.37316645      20.06629644       0.11503312      -0.02646840       0.16292897      -1.14869616       0.59843702       1.37786415
I        6.68119515       9.13135157      21.80397055       0.12476212      -0.10940732       0.11103064      -0.65879921       3.27918148      -2.40889503
I        9.41443651      12.73300032      21.60572241       0.04552441      -0.05903272      -0.09659018       0.87686182      -0.88281167       1.66322601
I        3.33926849      18.79169399      21.13451278      -0.02963887      -0.00790157       0.10507871       1.09027936       2.07591018      -1.66156594
I        3.11830341      11.98902271      20.68044210      -0.08508476       0.06759120      -0.05574889      -1.26402331      -0.83774759       1.91378500
I        9.61636669       5.71204075      20.40713286      -0.20632069      -0.05427381       0.14197664       1.11766449       0.12325578      -0.10355702
I       12.21395744      15.54476806      15.65546489      -0.06366340       0.23399085      -0.00086935       0.97534592      -0.45903583       0.86400296
I        5.81943089       9.49663402      14.37979490      -0.04132170      -0.18464757      -0.12303021      -0.32751321       2.57732778      -1.35840515
I        0.82068306       9.83094789       2.07789319      -0.13310792       0.08672653      -0.08004778       1.87202596      -2.68537787      -0.93985482
I        6.94483691      16.03720011       3.13629735      -0.09273215      -0.12286557      -0.01062140      -0.36230140      -1.93655079      -2.34103914
I        3.22021701      13.70237595       2.96503159       0.01427749      -0.12518579       0.20668589      -1.15798887       0.37320349      -0.13723769
I        9.38995851       7.08834614       3.29806360       0.17235192      -0.07569261      -0.20210658       0.23244199      -0.79041191       1.12815246
I        9.46639587      12.24551486      14.65512243      -0.10348213      -0.12902837      -0.09581874       1.59029953      -1.11305394      -1.02347457
I        3.24443475      18.47996330      14.61916530       0.25180623      -0.11211815      -0.13947967      -0.51790893       0.53439873      -0.27082425
I       24.75488630      17.55573570      23.90997392       0.01539419       0.09216775       0.19760813      -0.78365292       0.63242001      -0.04082753
I        5.71650225      12.85760388      24.31382328       0.05331863       0.11435078      -0.22118180      -0.98235936       0.97962585       1.92855057
I       12.67606399       6.96074517      18.00985525       0.04137257      -0.08100555       0.04457281       0.33214441       2.76477149      -1.12929856
I        6.61872399      11.81480193      18.02673882       0.08621321      -0.03023900      -0.06470714       0.38167951      -0.22539855      -1.69285397
I       24.58291862      11.83564544      17.94922587      -0.02297710      -0.10013190      -0.20858256      -0.07388482      -0.29275257       0.69933118
I        6.07078549      19.66748848      17.94279891       0.03601199      -0.15513174       0.06412872       0.07388218      -3.24743695      -1.14592539
I       13.15052975      12.91101726      23.99451522       0.05313437       0.01810197       0.15028871      -0.95808242      -0.54253508      -1.21263749
I        6.90963165       4.86287177      24.37734977       0.05471312       0.19971328      -0.39284063       1.38689364       1.13131750       1.14892225
Cs       9.27911739       2.47424933       5.77704302       0.03576039       0.12008157      -0.00987246      -1.70010254      -1.02022309       1.59226279
Cs       3.08872217      22.54032181       4.95134075      -0.04272223      -0.12686962       0.01240783       0.07819477       1.40254590       1.50487875
Cs       3.36822295      22.59464533      11.48670696      -0.08830099      -0.01794614      -0.05581290       1.31904729      -1.10392577       0.52030239
Cs       9.31611783       2.74260133      12.46131037       0.08730330       0.05420196      -0.02628740       0.96857980      -0.61656593      -1.49873679
Cs       9.61926216      21.48518369      11.82720347       0.08975924      -0.05428264       0.17925858       0.66246210       0.83198565      -0.94099110
Cs       3.14551910       3.52982527      10.84956161       0.14254155       0.00227847       0.07519409       0.61906884       1.34112144      -0.03276289
Cs       3.13754851       4.38206476       5.29951342      -0.04803551       0.01109929       0.11599791       0.84865158      -2.31049704       2.93383796
Cs       9.41615923      21.85441659       6.39209782       0.17325534      -0.03858606       0.01371538       1.08288238      -0.62956750      -0.08404697
Pb      -0.04770502      18.91162180       8.82158424       0.08700909      -0.07919080      -0.40211488       2.26969307      -0.95514782       2.44812701
Pb       6.17853470       0.29243312       8.70000421       0.08796826       0.08072346      -0.23095662      -0.54191025      -1.08609468       0.68786379
Pb      -0.16435381       0.03880799       9.01897127      -0.01466412       0.27315738      -0.11757192      -1.15804120       1.01113813       1.49357522
Pb       6.40981029      18.97992656       8.61725430      -0.04762748       0.02544216      -0.05785534       1.45812544       2.20192202       0.18320484
Pb       0.06613392      19.13739541       2.34563685       0.10525184       0.24096557       0.17593184       3.07861306       1.25772178      -2.20935141
Pb       6.07663754       0.39921093       2.55635807       0.01341858      -0.00620406       0.21403831      -1.86191489       0.13918216       0.87900883
Pb      -0.08620522       0.49900414       2.63367276       0.35099394      -0.20431220       0.23762641       0.65535761       2.28361294       2.75706661
Pb       6.29991951      19.11147957       2.55603401       0.03999543      -0.15868826      -0.18791440       0.98118184      -0.55675967      -1.02395224
I       24.53868181      21.77685799       9.23878663      -0.04927390       0.54232867       0.18473823      -0.32630632      -2.18748479       1.09808851
I        6.13143703       3.32199638       7.81491947      -0.14923748       0.32873400       0.07259374      -0.11259879      -1.29006918       1.59438755
I       13.33260164       3.56457000       8.09887375      -0.08769906      -0.08167184      -0.12506790       1.07759346      -1.09377853      -0.41046159
I        6.94099963      22.06244241       9.25998653      -0.06352765      -0.21458134       0.03460957       0.23302263      -0.39347084      -2.67991164
I        9.34040238       0.55444016       9.09999593       0.20915767       0.01903798       0.05595653       0.04101425       1.42340052      -1.55185161
I        3.16129902       6.94247681       8.91624544       0.30550285      -0.06800513      -0.01944384       0.32560321       0.52347901       2.97818128
I        3.10328941      24.71527208       8.10017810      -0.00020881      -0.01181879       0.14765922       0.98799685      -0.93709987      -0.68745722
I        9.56245309      18.22292722       7.89068456      -0.06573321       0.14658432       0.10911300      -0.99528974       0.64915887      -0.13421147
I       11.94904443       3.49194501       3.10203855       0.09273869       0.30578042       0.11634740      -2.30858171      -0.58600280      -0.68170588
I        5.73363015      22.11295361       1.58984757      -0.07951252       0.15443963       0.01989654      -0.61918518       0.22723482      -1.10203278
I        0.41191422      22.06127240      14.00482132       0.09805126      -0.11121139       0.10209517      -0.81720586       0.87968926      -0.54239394
I        6.89163683       3.30136008      15.89508225       0.06038583      -0.11158602      -0.08487546      -0.67512870       0.48068015      -2.44157744
I        3.16655707       0.82684624      15.43140636       0.18107589      -0.08377803       0.06260550      -1.07054575      -1.62483685      -0.10108333
I        9.58528590      19.39417062      15.32765564      -0.13609076      -0.04565718      -0.16279418       0.53288538      -0.70292627      -0.85374903
I        9.34958568      24.82726853       1.90001586       0.07720723      -0.09174733       0.11693569       0.67397371      -0.31678711       0.44810993
I        3.22539433       6.37143815       1.70460903      -0.18306786      -0.10618925       0.17237856       0.46826415       1.67623351      -0.10531994
I       24.61425019       5.87335709      11.64266955       0.09109895      -0.06652139       0.24223992       0.54657917      -0.99467519      -1.13158266
I        6.01167768       0.68851200      11.93160743      -0.14595853       0.25330879      -0.15322920      -1.70971170       0.41640132       2.63513627
I       13.33429857      19.72552530       5.73517160      -0.03609552      -0.00823163      -0.42422911      -0.07894441       1.30451861       3.45747555
I        6.83346508      24.15457439       5.38770072      -0.15613093       0.18550896       0.04998843      -2.22975157      -0.79996104      -3.67119151
I       24.52769905      24.32061525       5.48264678       0.02307128       0.06510744       0.06783096       0.03107917       0.79820764       1.12194730
I        5.88313632       7.31915671       5.65586443      -0.14455679       0.09630074      -0.14295446      -1.53237635       2.00685695      -0.12458331
I       12.66093659       1.07203762      11.99187521       0.12831695      -0.01318721      -0.03773230      -0.05208968      -1.99646567      -1.08650781
I        6.72824541      18.30077769      11.62735651       0.04775738      -0.00413332       0.26775621       0.55082491      -0.88458204      -0.18067068
Cs       9.68863996       2.54115520      18.42494776      -0.00836185      -0.15631460       0.07352654      -0.52657938       0.05416770       1.29761505
Cs       3.38862405      22.18361466      17.19551783      -0.14655130       0.04739669      -0.04589403       0.05474402      -0.09992051       0.47648441
Cs       3.40500429      21.98806382      23.46589128      -0.11138470      -0.08658055       0.08826364      -1.13122196      -1.60559930       2.34943966
Cs       9.53350394       3.00388089       0.14139473      -0.06789526       0.21313436      -0.06005143       0.05669357       0.72527063      -1.88315479
Cs       9.32527738      20.77236180      24.71436896       0.15459854       0.00660060      -0.04138938       1.36245061       0.25625716      -1.09289658
Cs       3.25812155       3.21987587      23.56539270       0.02393364       0.07121355      -0.04277121       1.46796358      -0.06955220       0.54211412
Cs       3.24181034       3.80841647      17.90719347      -0.00109422       0.13778003      -0.17503494       0.39248047      -2.56576680       2.01209673
Cs       9.59277108      21.44273672      18.43162634      -0.03446859      -0.02378170       0.11437034      -0.37174485       1.39423366      -1.65582934
Pb       0.15307479      18.74593641      21.07281135       0.06342648      -0.19422260       0.10074434       0.67619583       0.57321116       2.28207027
Pb       6.50802921      -0.12672922      21.28636645      -0.01031130      -0.25131305      -0.16041606       1.35464205       3.18173636       0.17616241
Pb       0.17916159       0.06440052      21.31012814      -0.02477290      -0.07209366      -0.04112843      -2.44742137      -0.84658980       1.77500743
Pb       6.69593995      18.42121499      20.95566383      -0.36799233       0.03021909       0.34590883       1.75077124      -1.39085770      -1.75434094
Pb       0.26314137      18.89953051      14.96484083      -0.26865579      -0.01700140      -0.02204883       1.80108882       1.43645871      -3.10750778
Pb       6.38163354       0.21434625      15.02710920      -0.11951743      -0.10833788       0.17510133      -2.26854867      -0.87586418       3.34789988
Pb       0.15139181       0.34186206      15.20407523      -0.28144951      -0.09204184      -0.10915958      -1.52388782      -0.29121762       0.71391298
Pb       6.47253623      18.84310373      14.95358181       0.10524087       0.07639182      -0.13775457       1.03983708       0.66617668       0.11432661
I       24.55350162      21.80400539      21.69098491       0.23192122      -0.21715244      -0.08292187      -2.43418369      -0.19883912      -1.63477571
I        6.06594982       2.99062787      20.31773140      -0.06336418      -0.25654300       0.07627036       0.36733281       2.14647597       0.28901141
I       13.20242104       2.96931267      20.60267563      -0.07034422      -0.00508597       0.07382370       1.45032759       0.10869480      -0.57451364
I        7.09356595      21.55761067      21.92258998      -0.13754095       0.20042104      -0.22383113       0.49276329      -0.02535818      -0.53937221
I        9.70984574       0.29693448      21.63475404      -0.41377702       0.05612802      -0.02407764       0.96455185       1.29057721       0.40682797
I        3.28865003       6.69299563      21.64396084       0.01144576      -0.14569260       0.03478503       0.91528989      -0.35863130      -0.95376180
I        3.31181069      24.25053882      20.43262168       0.28897702       0.08997889       0.06063725      -0.85490292      -0.59661459      -0.04971898
I        9.46269897      17.92792627      20.46861179       0.60160065       0.04217056      -0.05894004      -0.69162455       0.47357232       0.69938944
I       12.22493272       3.16614270      15.86554179      -0.06394008       0.52295541      -0.16799376      -0.31291243       1.88631491       0.50702125
I        5.94935575      21.93634657      14.26774647      -0.01711269       0.06758547      -0.11460653       0.99002759      -0.48173528       1.74214098
I        0.63272094      22.25792147       1.60571434       0.05595280      -0.14314297      -0.05323217       0.65100128       0.02449788       0.02325730
I        6.41771024       3.54613976       3.29119470       0.12218669      -0.02554457      -0.02423576       0.21326618       0.19032120       0.92183516
I        3.10115483       1.04380039       3.45237438      -0.13981652      -0.04070190      -0.08653662       0.97302360      -0.67066503      -0.41490775
I        9.41197956      19.72079003       3.26070334       0.23843429      -0.01348313      -0.08344913      -1.77293234      -2.98614789       1.56681681
I        9.47865426      24.29903206      14.78570949       0.04852262       0.11000747      -0.16788955      -0.68078741      -0.55087167      -0.97201528
I        3.19334198       5.74305743      14.26679002      -0.23964951      -0.11967606       0.03081585      -1.09478418       0.60159442       0.53341565
I       24.40062105       5.46262422      24.08172932       0.07887101      -0.10222734      -0.18924639       0.11362932       0.60366668      -0.16946851
I        5.78602107       0.34370123      24.31118923      -0.03366227       0.12442091       0.02328246       2.50303689       2.05347576      -0.88728679
I       13.36530799      19.31124808      17.95634128      -0.14995849      -0.09906689       0.19873457       0.10241213      -0.95568800      -0.22099877
I        6.79770194      24.23724110      17.88032646       0.06511014      -0.07198961       0.15549273       1.02104765      -2.89093736      -0.56751614
I       24.79187949      24.25869569      17.85590014       0.07195370      -0.03582093       0.19626881       0.49516958      -0.06616466      -0.26155841
I        5.79857581       6.94377450      18.05060433       0.13277527      -0.23914758       0.09483990       0.47993893       0.74338647      -0.02341868
I       13.05178044       0.66311850      24.35744589       0.09939933      -0.12545862       0.00474440      -1.70412160      -1.64484671       1.87782123
I        6.85110572      17.52891334      24.16606885      -0.06339082       0.15723400      -0.10463608      -1.03605387       0.75283150       0.33303361
Cs      22.41696213      15.14572065       5.63986251      -0.18151660       0.09429191       0.11142434       2.01678009      -0.97907968       0.22971411
Cs      15.89510924      10.41245871       4.99493741       0.01997466      -0.02584801       0.01712690      -0.80090553      -0.89948556      -2.18675092
Cs      15.71698924      10.26811074      11.56878662       0.05470513       0.03263601      -0.07993891       0.71913026      -2.81065154      -1.48806338
Cs      22.03133697      15.42611751      12.43997376       0.07749924       0.04497748      -0.00568874       0.25718418      -1.54042038       1.76535762
Cs      21.94296905       8.81649299      11.90298810       0.02271315      -0.02549170       0.05302610       1.07917283      -0.86154439       2.03401645
Cs      15.74329504      15.68909895      11.16051755       0.17873883       0.20611339       0.02772333      -0.97338208       1.76523600       0.27983295
Cs      15.82174493      16.41781180       5.41683697       0.06749483       0.07789814      -0.29455221       1.19150761       2.86227233       0.37849017
Cs      22.08917573       9.35409438       5.85826106      -0.04410502      -0.09740435       0.11798264      -0.83060378       0.83924193      -0.24565911
Pb      12.72688640       6.72087350       8.69412419      -0.38637142      -0.11346689      -0.19301567      -1.43480229       1.22155690      -1.37523340
Pb      19.01686812      12.89785966       8.42052398      -0.16694173      -0.04939118      -0.03113561       2.91024171       2.14175105      -2.37291007
Pb      12.49445883      12.93501782       8.54871643       0.23504733      -0.28397036       0.11059251       0.59862862      -1.52635052      -0.73893872
Pb      18.78593364       6.70704616       8.52247263       0.24309217      -0.40587165       0.15140583      -2.96623065       2.83180131      -0.65681533
Pb      12.61531864       6.77431758       2.61136660      -0.10354797      -0.14504986      -0.03747997      -0.33854140      -1.11830357       0.67300241
Pb      18.81088337      12.86334819       2.25544043       0.35339396       0.42463558       0.07538709       2.37458232      -0.80665704       0.62417809
Pb      12.56114440      12.91584133       2.20097038       0.15074894       0.13979971       0.08022296       2.31238295       0.62029015       2.03782389
Pb      18.99723881       6.71801671       2.57437879      -0.10934524       0.06907857      -0.29470581       2.13085752      -1.86595232      -0.53839001
I       12.11210061       9.73764130       9.34528040      -0.07357222       0.05215292       0.05921337       0.22441565       1.44516144       0.09400566
I       18.57616287      15.99654383       7.78600491       0.02686321      -0.20767235       0.04910938       0.99001039       0.41538690       1.78324246
I        0.29688955      15.95222893       7.95102973       0.15639085      -0.50395668       0.05013263       0.89601026       1.31092171       0.77217693
I       19.27552515       9.75951546       9.12983449       0.10183163      -0.09276954       0.05045703       0.32737193       1.69631096      -0.87292748
I       22.03018200      13.37630941       9.06591961       0.26770361      -0.09124516       0.01723442      -0.83995074      -0.30297163      -0.01521271
I       15.86714810      19.22882579       9.59328376      -0.20564440       0.04702464      -0.10396665      -0.74697348       2.20772067      -1.59531372
I       15.65984077      12.48561445       8.41039829       0.21784743      -0.00895108      -0.08809117      -1.99212008       1.14210592       0.44027757
I       22.02528770       6.15249538       8.05387262      -0.16944004       0.02646942       0.01899758      -0.21560752      -1.23730295       0.87202829
I       24.82599085      16.04097855       2.98349574      -0.03463758      -0.04985118       0.06049786      -0.22978350      -1.22932055       0.11681406
I       18.67428540       9.92726906       1.47742167      -0.12614642      -0.28584124       0.06578933      -1.38327309      -1.64200261      -1.19716298
I       12.94151389       9.50043744      14.10987703       0.02100800      -0.26663717      -0.07680694      -0.86711593       1.38437030      -0.66739139
I       19.42113169      15.71405037      15.63860637      -0.01933493      -0.03872110      -0.14500367       1.81047446       1.99022752      -0.50049973
I       15.82732142      12.80723030      15.34819458      -0.02848028      -0.10483561      -0.03905952       1.42217801       0.62491087       0.36307995
I       21.85325078       6.22300018      15.20467289       0.32896199       0.14539097      -0.16342072       1.08875251      -1.24374142       1.39704174