320
Lattice="25.121854697261806 -0.05977452525107978 -0.12957468506993428 0.07192418218408468 24.82535238426277 -0.21579304325525844 0.12447059888337542 -0.778188195725328 24.81728374174729" Properties=species:S:1:pos:R:3:forces:R:3:momenta:R:3 energy=-980.2140403607175 stress="0.0 0.0 0.0 0.0 0.0 0.0 0.0 0.0 0.0" pbc="T T T"
Cs       9.43958321      15.07162618       5.54278859       0.05882711      -0.04936643       0.12971425       0.12862101       1.79928544      -0.53620610
Cs       3.42699072       9.97977936       5.47926256      -0.05223210       0.24461025      -0.09656552      -2.04539453       0.98628107      -2.06662442
Cs       3.11766690      10.62672219      11.64549319       0.04326300      -0.04121143       0.01280063       0.46193864      -0.34948561       2.49429946
Cs       9.55800813      15.41849098      12.40800512       0.07589511      -0.01882965      -0.03044627       0.36505537      -0.15081620       0.20266751
Cs       9.69717063       8.33295236      12.33043104      -0.01427195       0.22079891      -0.29432714       2.10293599       0.63707658      -0.39372795
Cs       3.18280803      15.89499739      10.94292209       0.12198046       0.15713784      -0.02146019      -0.39122541      -0.27759483       1.94243322
Cs       3.25689748      16.74195546       5.43131741       0.02682985      -0.03107754       0.09521915       0.61209279      -1.72406629      -1.54741650
Cs       9.52460945       9.28659994       6.54695520       0.06323480      -0.13465590      -0.09449274      -1.13635419       3.12742624      -2.60750768
Pb       0.28643052       6.56579911       9.02808471      -0.15995681       0.03326176       0.08552558       1.56574186       0.59443206      -3.02426163
Pb       6.72490292      12.64260266       8.69689009      -0.32715928      -0.11517692       0.23164727       0.30815844       0.95410307       1.54733023
Pb      -0.07783474      12.54432294       8.64568244       0.28581497       0.15561260      -0.08495299       0.07978765      -0.46077100       1.97562981
Pb       6.30687762       6.32869566       8.82132141       0.07804389       0.06581024       0.09792311      -2.48820693      -0.51254154       2.26521587
Pb       0.16018971       6.68134579       2.74404973      -0.08565367       0.01076867      -0.15402964      -0.54432666       0.48900332      -0.96654179
Pb       6.20945213      12.81113061       2.49296172       0.02353997       0.26827313      -0.12545148       1.12038977       0.34040149      -0.32077750
Pb       0.21751972      13.02852095       2.43866758      -0.24164543      -0.21935742      -0.00857802      -1.66130558       1.44709267      -3.46178312
Pb       6.23466742       6.84332261       2.50969126       0.11431183      -0.30951993       0.27964034      -0.86212543      -2.03766331      -0.02523365
I       24.37371421       9.51958173       9.61127924       0.20106338      -0.02499278      -0.18246504       1.71584154      -1.27306871       0.68180945
I        6.27141038      15.70653123       7.87553418      -0.07328767       0.26937076       0.01785281       1.94057304       1.99986029       1.25119959
I       13.27897548      15.66759336       7.83726051       0.11081777       0.08815320      -0.01908045       1.45048913      -2.95752011       0.21776434
I        6.88013179       9.49974622       9.42583841       0.11565834       0.05740116       0.12299806      -2.45045291       0.69933254       0.61845582
I        9.75834267      13.34633552       9.07511238      -0.10665154      -0.03649160       0.01659076       2.25114846       1.18016025       0.38682334
I        3.38222683      19.22884113       8.75679628       0.12132358      -0.20933929      -0.05314423      -0.51451898      -2.22898729       0.47421338
I        3.33872700      12.53026035       8.56510074      -0.12942204       0.07372348      -0.11160503      -2.43596971      -0.16444091      -2.44764928
I        9.51212688       5.81666940       8.48978147      -0.11627464       0.00355796      -0.02133393      -0.57633790       0.67750488       0.63480132
I       11.96654001      15.98728339       3.06791780       0.21934341       0.00417109      -0.04301820      -1.02894078      -1.41579257      -0.13251170
I        5.71718824       9.81448595       1.83229615      -0.11907315      -0.23310091      -0.06618699       1.67276159      -0.36261917      -0.49442142
I        0.44338464       9.41121022      14.17712124      -0.03388148      -0.19734772       0.06633701      -1.38684288      -1.19110534       1.11650248
I        6.73420046      15.65179526      15.38295286       0.10687888      -0.12063735       0.04884700       0.63346582      -0.66095619      -0.74250639
I        3.31879953      12.92547389      15.16251388       0.05872694       0.06654263      -0.12842935       0.89995281       0.75557579       0.04644383
I        9.66241875       6.73970635      15.61302854      -0.18742487      -0.07237899       0.05422259      -1.02910167      -0.88719679      -0.01740180
I        9.42999859      12.68134489       2.10793900      -0.21690256      -0.17705548      -0.06688896       0.30391554      -0.03504896      -0.53855249
I        3.21368180      18.97793942       2.21529163       0.25011093      -0.10140774      -0.10007170      -0.03599900       0.28000684       0.92157318
I       24.60075823      17.77296843      11.60684750       0.03921309       0.00112074       0.33496248       1.57842857       0.81545577      -1.91300993
I        6.19330020      13.64444936      11.82653615       0.04165661      -0.20926297       0.07147965       1.77809802       0.91435643      -0.90848962
I       12.96692703       7.08598931       5.70410505       0.01223264       0.09324745      -0.08508314      -0.30343920      -0.20406144      -1.35300926
I        6.85717308      11.95894008       5.56375929       0.03016564      -0.03075155       0.00540540      -0.52391411      -0.37642632       1.10371541
I       24.76511820      12.10001440       5.35802225       0.03524376      -0.06451144       0.12741743       1.89599210       1.63518839       1.26071392
I        6.34839238      19.74563271       5.48701948      -0.05053703       0.01176466      -0.03324682      -0.20248422      -1.67373981       0.53753321
I       13.36111306      13.53094445      11.87518194       0.01877050      -0.07461105      -0.36325827      -0.89744281      -0.64913342      -1.30943324
I        6.73427138       5.69785137      11.97268831       0.04793419      -0.04463744       0.02458624       2.10804311      -0.02131887      -0.71445118
Cs       9.45132810      15.05022886      18.20023015       0.00250474       0.00999415       0.05182767       0.24249234      -0.23335048       1.89813425
Cs       3.20464355       9.94908895      17.22675983       0.01559615      -0.25564567       0.08750748       1.01937316       1.22127375       1.91225309
Cs       3.13870686       9.28276804      23.74959329       0.10357508       0.16465596       0.12238629      -2.13956668       1.34779325      -0.58572717
Cs       9.51309942      15.84053370       0.00618733      -0.11850552       0.02813631      -0.08923544       0.48878599      -0.69370122      -0.73182747
Cs       9.75977167       8.78464097      24.52660268       0.05192418      -0.08523923       0.06811070       0.00334435      -0.06125360      -1.04597846
Cs       3.48526196      15.88438863      23.68245956      -0.12848228      -0.02914212       0.08351617      -0.76238869      -0.34250754      -0.47429852
Cs       3.55556766      16.11226928      17.38708115      -0.10331531      -0.03232970       0.14379899       0.57270759       1.37673668       1.01583655
Cs       9.54669471       9.18990643      18.71696460       0.15766132       0.13700786      -0.09190970       3.24153561      -2.09722629       2.55212356
Pb      -0.07797324       6.07476765      21.14152179       0.16649130       0.23587825       0.05850803      -0.08290458       1.21832704      -1.95707837
Pb       6.35581935      12.41118486      21.16794170       0.23581944      -0.06441020       0.33288140       0.25313596      -2.07978443       0.84336531
Pb       0.26277567      12.38171515      21.02148308       0.04087960      -0.14746379       0.05111115      -3.64750933      -1.67247483       1.15839537
Pb       6.44870635       6.22704340      21.15322668      -0.01270938       0.28979618       0.06733209      -2.79024405       3.87617339      -0.65718447
Pb      -0.07409000       6.15459929      15.05072187       0.28765995      -0.00435625      -0.11182261      -2.32822600      -1.74812122      -0.96729777
Pb       6.54091015      12.28098718      14.88709439       0.13093333       0.25890929      -0.21622288       0.80150981       0.84748715       1.82644373
Pb       0.21237479      12.56269283      14.72430850      -0.39816358      -0.10752185       0.05884655       1.09073907      -0.16530545       1.00739653
Pb       6.36884900       6.36163372      15.10254318       0.15328034      -0.10987588      -0.10586687       1.50741759       2.05471208       1.24256379
I       24.77317270       9.26924646      21.63798532      -0.10414303      -0.20888817      -0.00064248       0.46257566      -1.52233187      -0.57151626
I        6.02571731      15.47114068      20.47710689      -0.10307051       0.06737859      -0.09861730       1.76500091      -0.98962151       0.28674102
I       12.79175446      15.58903492      20.30862049       0.05585839      -0.14229721      -0.01035731       0.08076118       0.87523342       0.95377107
I        6.99074897       9.29084434      22.08467762      -0.08816766       0.01136420      -0.11443587      -1.28826574      -1.02400579      -0.01810906
I        9.61331593      12.78317584      21.54653870      -0.08411963       0.01603720       0.02313129      -0.38688743      -2.74560260       2.33838655
I        3.40063148      19.20679727      21.62586894      -0.12717387      -0.05000035      -0.05111921      -2.37185185      -0.07626678      -0.31292104
I        3.45073107      11.68913319      20.83341262      -0.28858547      -0.05231846      -0.21998777       1.06929210       0.33240465      -0.18676383
I        9.58923601       6.01175566      20.27266914      -0.02558648      -0.13193794       0.17819018      -0.89103898      -0.30185845       0.73090877
I       12.04129119      15.79471568      15.41239625       0.00104297      -0.33249305       0.11778443       0.82364637       0.64267954      -0.13852099
I        5.89286550       9.40969595      13.83870982       0.08043885       0.08448526       0.23892718      -0.13790084      -1.65089068       1.65334705
I        0.60903952       9.69963926       1.87892189       0.03611726       0.24972932       0.18921993       0.32917895      -1.64802226       2.26446949
I        6.66072108      15.84894779       3.09695688       0.01008792       0.38205092      -0.03704640      -1.42569614       1.63767400       0.20798893
I        3.24930228      13.51571238       3.22759824      -0.22158660      -0.12243737       0.12122198       0.62446091      -0.72966810       0.70921493
I        9.46557106       7.30682556       2.86486584      -0.27454093      -0.04696892       0.05597529       1.41561561      -2.33166201      -0.56751718
I        9.66386281      11.93264227      14.24197937      -0.22274454      -0.02633634       0.01674938      -1.78660286       2.50567433      -0.11068502
I        3.40625182      18.38574432      14.19585467      -0.09689080      -0.07534453      -0.04634215       1.88437384      -0.98298186       1.03358128
I       24.87030516      17.60936003      24.09777132      -0.04305799      -0.03647361      -0.20383335       0.15260002      -0.07459941       0.02516183
I        5.76226307      13.05594033      24.26693833       0.12109915      -0.15606659       0.14013072      -1.54570533      -0.32047112       1.10490076
I       13.60608770       7.20833594      18.03846615      -0.09331013      -0.06160076       0.33364587      -0.65918009      -2.08886426      -0.59255077
I        6.98674038      11.94501077      18.16985069      -0.07731607      -0.09997524      -0.53043638       1.31381612       0.05455406      -1.16440840
I       25.10836320      11.69770812      17.75295142      -0.10121858      -0.00202030       0.08245422      -1.04500518      -0.51837093      -0.60068793
I        6.13970234      19.24865248      17.88903026      -0.17812077       0.21233474      -0.12734510      -0.34361242      -2.64297726       0.96212970
I       13.17457229      13.14622008      24.03228306      -0.11215631      -0.14888247       0.42745521      -2.77516201      -0.07865837       1.70607789
I        6.96328074       5.45880807      24.31949820       0.08238376      -0.09407164      -0.19500089       1.74206676      -0.67385067       1.06425232
Cs       9.54668240       2.53595656       6.03459165      -0.04074348       0.13645540       0.02599225      -0.67215348       1.20170508      -0.99458640
Cs       3.26022916      22.04413779       4.54431754      -0.06706262      -0.07390784       0.20141019       2.01222706       0.30292859      -0.52042690
Cs       3.43842264      22.24100214      11.08041649      -0.08469780       0.02260005       0.10843344       0.86859426      -0.91230181       0.00343340
Cs       9.38707542       3.23125672      12.71208700       0.16475989       0.01892987      -0.02167350      -1.70871071      -0.77581151       0.73564470
Cs       9.82699444      21.65375803      12.16873613      -0.05339734      -0.17696697       0.05557620      -0.51589649      -0.54671940      -0.03324567
Cs       3.35482593       3.47123567      11.60018974      -0.11682839       0.06436514      -0.00097428       0.02459081       0.29381443       2.50903490
Cs       3.03324368       3.39932077       5.03308318       0.11171644       0.13000909       0.20107683       0.43346351      -1.82795173      -0.73872702
Cs       9.74657632      21.61461648       6.00053709       0.00362935       0.07060468      -0.09329515      -1.85686569      -0.36997572       0.72929052
Pb       0.04299593      18.78587056       8.83728414       0.22416366       0.11889857      -0.05359088      -1.88946809       1.54664446       0.00697247
Pb       6.47851996       0.22078163       8.82089592      -0.12266318       0.01877669      -0.10994099       1.00363727       1.23676422       2.44259000
Pb       0.31108441       0.44710390       8.90396495      -0.04059999      -0.48395738      -0.17633635       1.23144780       0.97858219      -1.65236881
Pb       6.78696009      18.87683485       8.48416753      -0.35019533       0.01676283       0.24749040      -0.99281600       2.23766380       3.26747334
Pb       0.10895897      19.15262883       2.50317982      -0.50376135       0.11722804       0.06066732       2.52044629       3.78380203      -0.42593075
Pb       6.28803191       0.57438209       2.73142715       0.13578256      -0.24514600      -0.04376211       0.09718438       2.46162276      -1.51807725
Pb      -0.06426994       0.43878365       2.47063285      -0.13144992      -0.22697869       0.20267072      -0.28721693       0.88074249       0.23145135
Pb       6.45841819      19.08793500       2.29515091       0.26466868       0.01936822      -0.06099251       2.86267257      -0.29317541      -0.12839958
I       24.97550430      21.87369949       9.30856886       0.02321139       0.22430436      -0.08879889       1.41994046       1.13642406       0.09368782
I        5.67373884       3.28573914       8.06203425      -0.01788985       0.01160450       0.00411179      -0.23341082       0.45473960       0.20509254
I       12.94065463       3.37743124       7.79498931       0.02713147      -0.31088268       0.21509652       1.21746881       0.02950034       0.65930205
I        7.19007535      22.02372035       9.40917692      -0.03878766      -0.25137871      -0.09495715       0.23939828      -1.25537572       1.32167884
I        9.46326905       0.76526982       9.61057563       0.25671638       0.08720524      -0.08614403      -1.62568769       0.97447436      -1.46002340
I        3.32958817       7.10425616      10.09631271      -0.18716661      -0.03303607      -0.07111434      -3.84108247      -1.00680089       1.64305644
I        3.40246421      24.34581815       8.03403048      -0.05775247       0.01792994      -0.07259688       2.28129699       1.14692782      -0.43884851
I        9.76675233      18.31668022       7.75092951      -0.29560268      -0.14094855       0.01830232       0.07187000       1.18616521      -2.27736342
I       12.20461412       3.43810369       3.30134611       0.00402194       0.30597654       0.01750527      -1.04341907       0.46709686       0.67486908
I        5.94439956      22.15324907       1.47761322       0.17874369       0.12609914       0.19196521      -0.65025054      -0.07525021      -0.82988689
I        0.72863583      21.62314909      13.98681659       0.13541072       0.14673895       0.00766026      -1.51278293      -2.02910528       3.54327965
I        6.80108484       3.31508772      15.96056486      -0.13026599      -0.13794645      -0.22081901      -0.55963120       2.69028085       0.35168575
I        3.26775128       0.65152897      15.71465402       0.25485409      -0.06964270       0.02699875      -1.24188932      -2.39993405       0.16238471
I        9.62940845      19.32890025      15.46811292      -0.15441349       0.01610237      -0.21360039       0.79069125       2.28141316       1.31278625
I        9.57348342      25.10882649       2.10934498       0.03088637      -0.21809256       0.00276602       0.18788826      -0.58535211       0.13665101
I        3.14226793       5.57734916       2.04058022       0.08085613       0.16687311      -0.10139292      -0.69802666       0.06019846       0.74104379
I       24.09570552       5.50593996      11.90797572       0.24318266       0.07797328      -0.30796676       0.53079111      -2.45200092      -0.62269445
I        6.22502076       0.99267665      11.91682037      -0.20590278      -0.07856279       0.17041597       1.00513219      -0.08482910       0.30064273
I       13.23476255      19.74693494       5.48826219      -0.01071119      -0.13668911      -0.19250087      -0.24612781      -1.53294207       1.90258190
I        7.01981182      24.30933391       5.49241413      -0.04951473       0.01132234       0.02952042      -0.29894222      -0.88394792       2.96931539
I       24.91456274      24.40890893       5.39494933       0.09211774       0.11614863       0.03906269      -0.94508800      -1.82669126      -0.27904363
I        5.89053276       7.05017791       5.83476409      -0.11429409       0.05276192      -0.29138725       2.40258021       2.38657441       1.15251965
I       13.31470588       1.07432247      12.08366154      -0.07099088      -0.06814644      -0.37216316      -0.80338740      -1.05788652      -1.74109902
I        7.27483668      18.41645452      11.75750253      -0.06726813      -0.08010171      -0.36568348       0.20522682       0.33740036      -0.09070317
Cs       9.50854268       2.59231269      18.25018403       0.13737389      -0.05549483       0.20971771      -0.21194509       0.68505872       0.58704508
Cs       3.21318510      22.00623629      17.49498750       0.16450712      -0.00361419      -0.07620054      -0.37684529       3.31115566       4.29356349
Cs       3.44603092      22.23383154      23.78378728      -0.04607402       0.10307260       0.00199950       1.20980829       1.10751426       1.02344102
Cs       9.52517364       3.38776013       0.47668952      -0.01259710       0.17167625      -0.15587862      -1.23099235      -1.23531541      -0.68326033
Cs       9.69412725      21.06872145      24.57121608      -0.08781041       0.10804666      -0.02815526      -1.07437959       0.08772417      -1.05090483
Cs       3.60483450       3.10044827      23.27187778      -0.21822343       0.01486079       0.08311272       0.68600391      -0.92125407      -0.19832045
Cs       3.46285249       3.93409130      17.88275025      -0.04008449      -0.00018712      -0.02093336       0.52917714      -1.67923604       1.23839216
Cs       9.79285066      21.45637874      18.32507339      -0.05453723       0.10696363       0.15400418       1.21330831       0.00008017       0.12393815
Pb       0.37820005      18.49366484      21.19803388      -0.38060149       0.12959152      -0.10354665      -0.93052630       0.43937425       0.47611182
Pb       6.59165067       0.04824156      21.27407803      -0.12502861      -0.25138548      -0.05474790       0.95306374       1.85992608       0.56401486
Pb       0.21856859      -0.02039753      21.13299891       0.05106215      -0.09347113       0.22619743       0.65364182      -1.75883756       2.10950883
Pb       6.52038065      18.69554449      20.83587689       0.13023564      -0.05220541       0.23773018      -1.80073127      -2.37957145       0.79894014
Pb       0.23813740      18.60929033      14.94821964       0.04714889      -0.08234672      -0.27015267       2.72993360       0.74927560      -0.71771383
Pb       6.33662187       0.04246583      15.01492521      -0.05774287       0.25874659       0.15719341       1.52313668      -1.34837910      -1.34228850
Pb       0.34792918      -0.17280411      15.11259341      -0.25195781       0.21365069       0.04386358       0.56668740      -0.77457397       1.87475393
Pb       6.56536664      18.75896414      14.71571534      -0.04446231       0.04320875       0.00254816      -0.80547237      -0.39122048       1.25634315
I       24.94348969      21.61055220      21.61083983       0.04622897      -0.02586913      -0.05176142      -0.88675646      -0.11598179      -0.30676696
I        6.25736983       3.17634275      20.42698673      -0.08046305      -0.15972301       0.01089909      -0.51005217       1.24656696       1.26223687
I       13.11498791       3.08130907      20.39851768      -0.00173134       0.00984749       0.14753523       0.60147799      -1.51765657      -0.24254085
I        7.25827619      21.65598803      21.61806537      -0.10199205       0.23716486      -0.02927493       0.90934022       0.23079993       0.08137908
I        9.48178143       0.56341466      21.77073523       0.35693469       0.15531049       0.10328257       1.06546152      -0.76997419       1.08369801
I        3.18633414       6.48767442      21.63994721       0.15063644      -0.14104300      -0.18583260      -1.80532258       0.29964677       0.46365295
I        3.48849911      24.46237081      20.49847523      -0.19666502       0.03242541       0.06609833       1.73243166      -1.98574090      -1.85575812
I        9.63004456      18.22417452      20.52945239      -0.19740968      -0.05804290      -0.09480208      -1.01011022       2.25192494       1.94028549
I       12.35854643       3.20853707      15.88995901      -0.00539913      -0.09801551      -0.12163535      -1.33347784      -0.35585796      -0.93218229
I        5.95320639      21.95077669      13.87864772       0.02850046      -0.10553482       0.22280265       0.22361076       0.00513862       0.98245088
I        0.46220338      22.15663713       1.54694616       0.05360278       0.11768503      -0.02259587       1.04497640      -0.22934255       0.38043026
I        6.57655025       3.58868330       3.60455641       0.08995702       0.09138047      -0.16105921       1.48039397      -1.92462886       2.18824934
I        3.13109067       0.38514564       2.97336687       0.04314412       0.14420233      -0.04636132      -0.59634494       1.97317898       1.57706323
I        9.75099400      19.54986402       2.58177819      -0.48967759      -0.05824871       0.17038021      -2.07350903      -0.60145465      -0.58385508
I        9.52212261      24.72302144      14.24262874       0.20023576      -0.08678770       0.09674763      -2.16999535      -0.66676750      -1.59025351
I        3.30221411       5.87316497      14.60478041      -0.25491650       0.08026274      -0.01748563      -2.22688884      -0.99669085      -0.31326213
I       24.49872976       5.48747645      24.23297123       0.17475481      -0.07779950      -0.11269354       0.86934526       0.87462389       1.53074767
I        6.05928682       0.42156074      24.40862676       0.01601915       0.08586418       0.06150830       1.63239818       1.18171135       0.25775385
I       13.07396284      19.37046652      17.85397598       0.04106447       0.12572058       0.25724086      -0.33849942       1.22900706       0.33582119
I        7.05775263      24.28312476      17.99045043      -0.01396889      -0.12031648      -0.28541229      -0.13522925       0.36098331      -0.44790260
I       24.86793295      24.02763183      17.90938939       0.08737622      -0.11819583      -0.17958783       1.43513010      -2.14906522       0.64531018
I        6.05265256       7.31567463      18.08755294      -0.12831198       0.02691376       0.26550869      -2.37276964       0.22716176       2.12990770
I       13.43401409       0.58561845      24.47796788      -0.19228816      -0.15271871      -0.10420046       0.32756336      -0.29811312       1.31701940
I        7.06182670      17.93315226      23.94523048      -0.02454279      -0.12168330       0.29829683      -2.81267867       0.09701590       0.87633609
Cs      21.85216881      15.22641709       5.81877353       0.08850799       0.04452506      -0.18564983      -0.33095486      -0.69781232       2.38993339
Cs      15.80935245       9.83552388       4.93166666      -0.10925584      -0.05727719       0.02934385      -2.20871412       1.12764488      -0.19390593
Cs      15.80156239       9.83720420      11.51113947      -0.00292307      -0.09170619      -0.05842805       1.79837291      -0.73324111       0.02541919
Cs      21.55665014      15.22991120      12.13321952       0.26264134      -0.03604369       0.06094092       1.69849072       1.69434654       0.27223720
Cs      21.95602646       9.12545146      12.34333827      -0.03469446      -0.18862945       0.17335536      -1.26692347      -0.36765342       0.19484604
Cs      16.25025254      16.33325345      11.52568299      -0.33603690       0.00568130      -0.14098864       0.48648451       2.58359940       0.91581175
Cs      16.00854522      16.31058674       5.12230441      -0.11613199      -0.01797889      -0.00079121      -1.48544995      -0.33579855       0.72820659
Cs      22.22761590       9.30949517       6.05790662      -0.11731916       0.06545518       0.09285982      -2.44954412      -0.53604697      -2.97233751
Pb      12.66162001       6.31962206       8.89354006      -0.00859794       0.10555078      -0.02717848       0.88812777       2.02751959       0.81511392
Pb      18.90046224      12.38174775       8.56515863      -0.16107444       0.08135357       0.06861243      -1.86660780       0.77367893      -1.76465026
Pb      12.77499700      12.66799137       8.72439964       0.23009066      -0.14134184       0.08148934      -0.60134481       3.53190710      -0.88407614
Pb      19.23111940       6.42353607       8.54394493      -0.12367813      -0.22927447      -0.13314675      -2.72202212       0.03525621       0.72808343
Pb      12.62917680       6.58777833       2.58770869      -0.11749244       0.08096869       0.14624299       1.15828761      -0.38594820      -3.09761626
Pb      18.80134638      12.70371020       2.32115563      -0.01995545       0.09486554      -0.09298205      -3.44998197      -0.21551617       0.11413409
Pb      12.45810516      12.82214507       2.36401842       0.38080462       0.12332363       0.15976129      -0.91975176       1.52272396       0.66523504
Pb      19.10036711       6.48781293       2.39267038      -0.29378073       0.09007248       0.14237510       3.28323071      -0.25952464       1.58346000
I       12.32556573       9.51342101       9.42258139      -0.12869780       0.11247209       0.10948884      -0.06523223      -0.99114592       1.81832611
I       18.44496067      15.55787138       8.11758337      -0.04699582       0.00249346      -0.06193969      -2.44572295       0.35738347       1.31376037
I        0.34015948      15.71569503       7.92105539       0.03313398      -0.09950054      -0.01329672      -0.47241519      -0.73754066       2.10894944
I       19.37812700       9.32304419       9.48890496       0.14902106       0.29254822      -0.05754940       1.02493242      -1.29314452      -0.72496873
I       21.92365481      12.99777020       8.91359875       0.39490230       0.02010283       0.11692559       1.17680510       0.88357988       1.04213083
I       15.76193959      19.48193667       8.96527214       0.25087217      -0.07223975       0.09606532      -2.34631848       1.53463388       0.26104479
I       15.96195074      11.82898714       8.38753305      -0.43409549       0.00275636      -0.19998668       1.33758762       2.97499420      -1.07192387
I       22.32255539       5.81014080       7.74482357      -0.09394535       0.10017423       0.04266273      -0.12482501       0.64502982      -1.25866974
I       24.65444380      16.06773747       2.93549265      -0.06166873      -0.44817778       0.07399288      -0.15797334      -1.55999015      -0.58087839
I       18.32138752       9.63191933       1.77368541       0.07840397      -0.03115254      -0.01810223       0.74902143       0.88188926      -0.05556102
I       13.47775982       9.38868336      14.31257995      -0.13791162       0.30619680       0.12376137      -1.50716472      -2.03095209       0.95395589
I       19.52558732      15.64280042      15.91762098      -0.09941440       0.09420838      -0.22538276       1.61050924       0.55794882       1.04727615
I       15.75878432      13.47659923      15.57776782       0.06138265      -0.01570085       0.10550190      -0.52891946       0.31718940      -1.09831023
I       22.03622807       6.50763393      15.57923797       0.09507978       0.09000708      -0.03576618      -2.93746881      -0.64315427       1.32173239