320
Lattice="31.392636507215773 -0.04481615214523286 0.09492011689125937 0.1392903615087138 28.887165468702893 0.25788863917263216 -0.2799812260619887 -0.14238296324623026 16.953981605175922" Properties=species:S:1:pos:R:3:forces:R:3:momenta:R:3 energy=-972.3819446735516 stress="0.0 0.0 0.0 0.0 0.0 0.0 0.0 0.0 0.0" pbc="T T T"
Cs       1.27484773       3.60793326       3.14871514      -0.05227479       0.14996739       0.23184058       1.18566419      -2.13202753      -0.66885109
Cs       5.14981935       6.09868824       7.65391037      -0.17849008       0.22074591      -0.03725308       1.84760037       1.08488529      -2.42101882
Cs       1.41445227      11.27485602      16.39726346      -0.12262786      -0.13467135      -0.11777604       1.30661962      -0.17788425       0.96492347
Cs       5.03147847      13.72508714       3.24628634       0.16520507       0.01299113       0.17092836      -0.73314144       1.03114539       2.00298929
Cs       8.91805359       3.61393893       3.27200405      -0.00885037       0.12636234      -0.03056861       2.76162145       0.87286946      -1.96775427
Cs      13.64370696       7.16757722       7.72816056       0.08370302      -0.15534457       0.13616190      -1.75718971       2.14416072       3.59812901
Cs       9.43612922      10.70916106      16.77371440       0.00194505      -0.01134311      -0.16093383       4.12292272       0.69899788       2.86860253
Cs      13.65896185      13.31905896       4.21255767      -0.23104748       0.10717032      -0.13510174       2.99661247      -1.51667566      -1.61086573
Pb       2.49683192      16.02860116       7.67104467       0.40701296       0.18689059       0.07351840       0.74932452      -2.27179683      -1.58122316
Pb       6.62449462      16.26470550       7.71520573      -0.37697064      -0.19189121      -0.28150862       4.75331851      -1.86385327      -0.58109993
Pb       3.94760584       8.80228638       3.25707978      -0.37147176      -0.13291029       0.51798593      -0.43311994       1.73073878      -2.45284382
Pb       0.01828965       8.93010739       3.44541668      -0.05889176      -0.56876787       0.15728713      -1.12990506      -1.52935256      -2.63501439
Pb      10.60038786      16.23448163       7.91329206       0.32046657       0.14957132      -0.09538030      -2.99944170      -1.49893071       4.11184849
Pb      14.41681371      15.70579445       8.23484228       0.22206590       0.96612339      -0.05089726      -0.99875490      -2.41880046       1.16582775
Pb      11.89646220       8.84510986       4.22989439       0.02827999      -0.07530070      -0.25236895      -1.65958695       7.61434703      -1.83157104
Pb       7.94348542       8.80301550       3.81248620      -0.02664933      -0.30392289       0.01271921      -0.86746985      -1.90450299       0.26371502
I        4.87137859       3.23976570       1.37440941      -0.20327895      -0.19046445      -0.06175750      -0.48267280      -3.88794254       4.37391005
I        2.00156657       7.46920821       1.10562576      -0.06137144       0.25893337       0.25539252       2.34722382       1.05085689      -2.53042156
I        4.63982377       2.32823513       5.47843767      -0.23164286      -0.07427199       0.20495725       0.45476875       2.73278756       1.62506709
I        1.89481816       7.63551008       5.74790532       0.07468691       0.17826234      -0.36694347       1.86725078      -0.94772424      -1.09965917
I        5.77477951       6.18598979       3.83701533       0.26736380       0.27147649       0.04113032      -0.05400806      -1.33225543       1.78446578
I        0.95166580       4.07856229       7.26118019       0.09654031      -0.67376526       0.13538622      -1.54663001      -0.28371486      -2.46162958
I        5.80123881      10.54334892       5.40987312       0.00040295      -0.15486334       0.18510959      -1.18472791      -1.02847663      -2.08002052
I        0.50018347      14.96567196       5.33803120      -0.02569433       0.05240029       0.32216551       2.50744176      -1.12276643      -0.80467600
I        6.08982920      10.05682127       1.51017136       0.06985448       0.12833524      -0.54438197      -3.77499279      -3.48478324       1.03547214
I        1.00742833      14.85603704       1.46460926       0.02580782      -0.06981576       0.05970694       2.64188512      -0.88797310      -1.02326479
I        4.46331954      13.54352628       7.98180858       0.30169005       0.20888356      -0.14191533       0.56472181       1.71514490       2.01976803
I        1.86283932      11.38416991       3.20942236       0.08603120       0.01665808       0.08847704       2.72928269       1.44020883       1.03865005
I       12.76426802       2.96832296       1.32940238      -0.15224168       0.23773186       0.12820737      -1.88008058       0.74022794      -0.89872894
I       10.34672215       7.31442214       1.77048398      -0.09218860       0.11754678       0.19166376      -0.40230114      -1.43439082      -2.57747040
I       12.26454225       3.28892867       5.35085342       0.21187544       0.12881089      -0.03162789       0.04624648      -1.74033894       2.67280453
I        9.69332132       7.43257110       6.17250784       0.14596756       0.09410526      -0.20726943      -0.16090227      -0.97239481      -3.10403178
I       14.12817406       6.41211602       3.73772565       0.04037216       0.07184317       0.17442503       0.98732322      -2.48881803      -1.59227447
I        8.09834560       3.99114035       7.82285182      -0.00195787       0.42031422       0.00813803       1.03590695       2.91995396      -0.53824450
I       14.23311698      10.62159574       6.23007784      -0.35147162      -0.28981082      -0.27441426       1.10702292      -2.70928917      -1.40434767
I        8.74508260      15.12108762       5.34274692      -0.16227200       0.13855117       0.51060080       1.18858698      -0.69815132      -0.93932412
I       13.67730844      10.54962878       1.92930491       0.00497271      -0.31145712       0.25571423       3.42614093       1.33992262      -1.61213532
I        8.94218644      14.52963427       1.46324082      -0.36847934      -0.07756552       0.11643184      -1.08425355      -1.75820130       0.17856428
I       12.17074383      13.29337122       8.42626286      -0.10143926       0.53268118      -0.10152273       0.69512364      -3.59741785      -0.60335058
I        9.89657216      11.29185028       3.90978025       0.01541283       0.07182349       0.06695202       0.60629596      -1.37240245       0.76705634
Cs       0.93519605       4.08407815      11.85336520       0.15554740      -0.09420619      -0.10875151       1.68382244      -1.18600945      -3.06868658
Cs       4.78477992       5.90439938      16.49162557       0.10617344       0.22111125      -0.12985137      -3.34361853      -1.23069292       1.97522540
Cs       1.56492184      11.24808039       8.37369601      -0.04077491      -0.14046098      -0.29080837      -1.37010056      -1.94555574      -0.76242397
Cs       4.96835741      14.25591378      11.85518304       0.00229630      -0.19640353       0.05200990       0.73105621      -3.51920247      -1.35521553
Cs       9.02541867       3.67063032      12.30201242      -0.02316845       0.10719925      -0.11182396      -2.41976314       1.54548716      -2.02013347
Cs      12.62506008       6.11386663      16.82245510       0.24528725      -0.02995148      -0.18578960      -3.67297879       0.09600724       1.64450426
Cs       8.55136183      11.52921674       8.42123212       0.06202745      -0.06796034      -0.17233750       2.21783510       1.72861791      -4.90514270
Cs      12.88058073      14.22296585      12.53796350      -0.11966864      -0.11850272      -0.04915445      -3.18757759       0.16960174       0.95321149
Pb       2.70840577      15.85567025      16.29569986       0.16543080       0.12670985      -0.30097624       3.73671363      -1.61366562      -1.60307975
Pb       6.67402852      15.99488450      16.31976443       0.31811655       0.01471220       0.20313013       0.04813225       0.17084129      -1.25440761
Pb       3.71868887       8.82084732      12.23103663       0.42290487      -0.23483581      -0.10847122       2.66795846       1.07438827      -2.02089633
Pb      -0.04736124       9.02610000      11.87056954      -0.34302454      -0.08229018       0.04698774       4.47304781      -1.14848844       0.71989889
Pb      10.47993232      15.84453322      16.50625549       0.32067223       0.10311893       0.02684845      -3.54585337      -2.84291169       0.01143320
Pb      14.30506236      15.90889401      16.52198220      -0.16780622      -0.09483654       0.05983277       4.16180333       2.24791248       5.62873438
Pb      11.76342056       8.90204890      12.10259024       0.30856330      -0.38554147       0.32136526      -4.81517910       4.15883587       2.00827069
Pb       7.82151140       8.80802512      11.62993386      -0.27074423      -0.11997565       0.43280924       3.87785186       1.78361839      -0.16729529
I        4.60499040       2.18581234       9.98159401      -0.06488649       0.39958485       0.49190551       1.87404291      -0.01124120      -2.80817747
I        1.79927361       7.54570354       9.80297050       0.29335958       0.08705891       0.20679686       5.50088783       1.02772199      -0.17722884
I        4.55785991       3.05017480      14.26020739       0.09936060       0.41617679      -0.89659403       0.93117415      -2.31964342      -1.84551256
I        1.69206918       7.28274996      14.14839793      -0.02022853       0.08241720       0.07906942       0.17478490       0.71000620      -0.37818053
I        5.99363473       6.23217284      11.68577428      -0.28753774       0.04272135       0.00100850       1.68735108       0.75260628      -1.69218002
I        0.71861840       4.12409185      16.54865404      -0.50274957      -0.34988828      -0.20901370       1.28322804      -0.91850858       0.98639555
I        6.32545369      10.13601033      14.09896650      -0.46104644      -0.19779995      -0.03715476       2.21254175       2.52643141       2.25202371
I        0.57599582      14.20829640      13.95570912       0.33688442       0.23922704       0.27714777       1.07872222       0.98159222       2.00437213
I        5.30832235       9.86577644       9.62503959       0.19071661       0.18319407      -0.07876153      -1.21603227      -1.42493995       2.57460847
I        0.73542215      14.70272651       9.83572808      -0.37131899       0.02529471       0.11631938      -1.17782178      -0.62966299       0.06910791
I        4.81709542      13.42218226      16.01330713      -0.20302356      -0.13364086       0.06961213      -4.32408845       0.19027202      -0.20384602
I        1.95115506      11.47481668      12.02594407       0.35094576      -0.04800365       0.06472938       2.44007496       2.11200770       0.35224895
I       12.23888274       3.08508820       9.69763281       0.36403180       0.27846871       0.06047832      -0.54806627       3.38817708      -0.19358117
I       10.07324500       7.54065975       9.83189456       0.12632530      -0.14121832      -0.27936044       0.76143132       4.03418713       1.04912331
I       12.66284559       2.57708629      13.82749040       0.07840257       0.11607921      -0.11401496      -1.51738560       0.60161218       2.35118633
I        9.41059241       7.48349794      14.15896453       0.36889729       0.22917769      -0.21358056      -4.89665120       0.50768001      -1.48006758
I       14.00494488       6.31119709      12.02424916      -0.56093382      -0.22983005      -0.06776279       4.39868687       1.95366439      -1.12958628
I        8.35998588       4.03746708      15.64523622       0.19374463       0.30602744       0.19314741      -0.78855925      -4.78073450      -1.33572376
I       13.73886573       9.51839098      14.82618365      -0.20856558       0.14349861       0.00586494       1.06831735       2.68056146      -2.95815000
I        8.72073866      14.83393075      14.05812760      -0.24874128      -0.15746975      -0.08865975      -0.31490882      -0.64125947       0.07758885
I       14.05822472      10.53577156      10.24579618      -0.28287606      -0.23002417       0.33144221      -2.86162786       0.11796510       0.15574218
I        8.36471480      15.03585392      10.04460993       0.22369317      -0.21950351       0.05162187      -0.06078810      -0.84166305       0.61797355
I       12.34107515      13.23771722      16.53884813       0.31332491       0.16877807      -0.20687373      -0.12573357       1.24174292       0.79478078
I        9.94303402      11.28708860      12.13435746      -0.10255288       0.46853799      -0.10102719       2.17013213      -4.89513841      -0.41469816
Cs       1.45391627      18.48175429       3.40233861      -0.04510910       0.03001593      -0.05928864      -3.07370872      -2.02667076      -3.44732164
Cs       5.61276212      20.97792288       8.20824780      -0.18287018       0.13402652      -0.09394219      -0.16270103      -0.52192331       2.25226896
Cs       1.75460883      25.27386295      16.57989235      -0.02269966      -0.05317719      -0.04812416       1.54983482       2.80439075       0.50944352
Cs       5.48461296      28.25564518       4.01503600      -0.04688672      -0.03602383      -0.17781943      -0.16097275      -1.80012840       1.12769903
Cs       9.85771921      18.66807056       4.01836461      -0.05476594      -0.00655892      -0.14129053      -4.06949308       0.86850484       0.06456838
Cs      13.28173055      20.94459391       7.99019611       0.16291874      -0.00229541       0.14698756      -0.11680395      -3.74239141      -0.09915299
Cs       9.03461556      25.62168998      16.26179904       0.17559068      -0.11443036       0.14420431      -1.26975747       1.89814044      -0.65188276
Cs      13.09872215      28.73138861       4.19016279      -0.02793608      -0.25693435      -0.15991001      -2.00159984       0.62853530      -1.38212791
Pb       2.66338754       0.99743861       7.88256125      -0.37428491       0.50770257      -0.34109598      -2.76111773       0.13480645      -0.55695498
Pb       6.59722893       1.27974127       7.75446647       0.26741178      -0.31683861      -0.08473137      -1.18951553       4.11579280      -0.74440501
Pb       4.28977378      23.10449737       3.62323403       0.02649619       0.12788778       0.00720351      -0.37906117       2.33167195      -5.19711316
Pb       0.18035411      23.08293854       3.42589160       0.05303577       0.48885217       0.31886710      -2.16431045      -1.35176137      -2.28062782
Pb      10.54835064       2.00300913       7.51040901       0.00949653      -0.54686635       0.10293227      -2.44169389       0.61914245      -1.18640574
Pb      14.68719130       2.05904074       7.46186828      -0.30698018      -0.34444175       0.21933513      -3.80753882       1.22722482      -3.83352194
Pb      12.04739973      23.47874535       3.83371850       0.39419586       0.08426660      -0.54457813       4.08545438       2.46902239      -2.63030259
Pb       8.30390284      23.15385129       3.73554240      -0.28384759      -0.06475499      -0.39561305      -0.38857767      -3.43404873      -2.25434224
I        4.92303262      17.20109126       1.68036227      -0.29408422      -0.08649402      -0.32540912      -1.35799917       0.36891758      -0.46205340
I        2.47874868      21.22251905       1.59731822      -0.18318436       0.22477810       0.08937437       3.53317263       1.28224987      -0.05187508
I        4.51531996      17.52461481       5.63228952       0.00188030      -0.05446161       0.00782495       0.50478741       1.28393003      -2.59213503
I        1.87823515      22.19966070       5.65049682       0.41408537      -0.42060644       0.69297045      -1.07224873      -4.00536895       0.22737518
I        6.35908063      20.53353052       3.82753489       0.08125107       0.14139145      -0.00423292      -0.58865053      -2.68805478      -0.32449975
I        0.51522394      18.55485510       7.73869875      -0.09063102       0.18033899       0.04775799      -1.06170506       1.30317365      -0.70007722
I        6.48214885      24.32434890       5.87653636      -0.35133981       0.11855058       0.09984501       1.76982419      -0.56257241       3.14869350
I        0.73495080       0.04331754       5.40625208       0.13299757      -0.26770926      -0.26665661       3.28318281      -0.87676070      -1.96185418
I        6.20493789      24.46832267       1.47948240       0.11132987      -0.04541226       0.04623653      -1.77746207       0.40862088      -1.48692771
I        1.02622721       0.33772190       1.21466224      -0.26066579      -0.08065448       0.02383914       1.89632024       1.54045997       0.58732891
I        4.69988399      27.50394679       7.82846857       0.07288218      -0.07971715       0.04798904      -0.72245056       0.20595997       2.76275558
I        2.46091666      25.75221618       2.95132295      -0.16050675      -0.35877511       0.13453141       3.06888121       2.76128522       1.36500362
I       12.67569717      17.07362234       1.89802655       0.11788255      -0.00326163       0.11255865      -1.00549821       0.70672593      -2.55653530
I       10.41553199      21.52948136       1.74490063       0.03495696       0.27193020      -0.10131572       1.37065171      -1.52561283       1.41280605
I       12.93956554      17.76607965       5.89889615      -0.38384832      -0.50168315       0.38924428       2.10050258      -3.26466777       0.68168424
I       10.25333030      22.62248228       6.31055611      -0.05676793      -0.36235583       0.06221808       0.21481947      -4.58818521       0.86875407
I       13.91529327      20.62300822       3.43001961      -0.19602420       0.02638410       0.16512877      -0.01449206      -0.01332375      -3.66878356
I        8.44797050      18.72180056       8.15021297       0.28112337       0.12131446      -0.15720573      -1.12326732       1.01279466      -1.27748105
I       14.20007444      24.81300125       5.77981617      -0.11133309      -0.12622766       0.10232442      -0.65266230       0.34554568       0.34030274
I        8.53698035       0.01198759       5.44279830       0.02421095       0.14566956       0.23237298       4.34388017       0.24856264       1.41103752
I       14.44498804      24.38556404       1.40496061      -0.40834316       0.14546048       0.08544932       0.96744086       0.65032168      -0.65990588
I        8.82565891       0.78396404       1.55786536       0.05997672      -0.16151691      -0.00939153       3.55254839       2.27530490      -2.46127084
I       12.81428319      28.42737779       7.96636475      -0.00722333      -0.25906572      -0.12298318      -1.63715493      -0.43663394      -0.06008821
I       10.04095677      25.91030386       3.47663597       0.12703703       0.04815189      -0.13124215       4.28763404       0.23450217      -0.32823046
Cs       0.78827823      18.23727493      12.07578230       0.27390695      -0.11474899       0.03783388      -2.56071177      -2.26137540      -2.80868913
Cs       5.79945091      20.88510243      16.57255666      -0.05965752       0.09597336      -0.15417549       2.50099236      -1.38651401      -2.38257631
Cs       1.73323212      25.12703171       8.10992271      -0.03521108       0.11726718      -0.14782386       5.44573021      -2.39394076      -1.16384559
Cs       5.50526464      28.21408498      12.30980583      -0.03977937      -0.23403836      -0.01509597       0.68043304       1.66079963      -2.20856135
Cs       8.45703350      17.72022011      12.37314324       0.20064568       0.30910148       0.00995967       1.25772850       1.22180547       0.53923090
Cs      14.32313746      20.57605518      16.52027487      -0.63238990       0.46863751      -0.17200005      -2.39404670       2.38055675       0.52238350
Cs       9.70244334      25.98453219       7.82537184      -0.02303995      -0.10982613       0.13599970      -0.48353850      -3.65615349      -2.89760658
Cs      12.48683939      28.72534001      12.38942035       0.25231779      -0.07086794      -0.12196610       1.84051026      -0.77039049      -2.49003660
Pb       2.58353809       1.73041485      15.96090183      -0.13180304      -0.40248890       0.49609443       2.13604877      -2.98473111       1.05196094
Pb       6.43866327       1.55759144      16.30607454       0.20664153      -0.16333940       0.04291748       1.91230029       0.28973906      -1.30480506
Pb       3.93939840      23.60137439      12.15595340       0.48075342      -0.35399499      -0.18165886       2.26629082       0.29837922       0.40784051
Pb       0.04560461      23.15056088      12.12332708      -0.30524309       0.38443056      -0.20677566       2.30908218      -2.51077508      -0.68188953
Pb      10.58846560       1.54480228      15.95609014      -0.16250219       0.11192049       0.53221865      -1.87835415      -1.57658274       0.72542916
Pb      14.52352365       1.16827708      16.33223464       0.01727946       0.38974691       0.04927196      -1.32450993       2.85449386      -0.35319588
Pb      11.97366044      23.39330583      12.24556104      -0.18871133      -0.17418647       0.02257531      -5.36025149       2.46343367       2.46395717
Pb       8.00531742      23.39817135      12.45126670       0.12389012       0.01707372      -0.48484214      -0.91823347       0.43252320       0.57102094
I        4.58178857      17.58446575       9.91228380      -0.17253727      -0.12723394      -0.17976659      -0.39336856       5.33443493      -1.02030540
I        2.16302748      22.15812331       9.81261431      -0.02102831      -0.17610457       0.06950404      -0.16804640      -1.91109494      -1.25934925
I        4.78180161      17.46998088      14.28394155      -0.18240677       0.04904651      -0.23631221      -1.38086198       1.56051850       2.81673098
I        2.02702745      22.07741606      14.22984277       0.10370653      -0.13679648       0.29844724      -5.38293434      -3.25030246      -1.11962182
I        6.04381222      20.92683576      12.11173468      -0.05957487       0.02952230       0.13993882       2.56903169       0.85440026      -1.02519038
I        0.65063233      18.40636046      15.53259853       0.03167662      -0.05174938       0.14695407       2.27228777       1.90575863      -0.81070735
I        5.89059577      25.01251184      14.37637020      -0.07843608      -0.24487308      -0.05366769      -4.09186430       2.11848476       1.66632806
I        0.62154542       0.55864795      13.60934669       0.09250817       0.02237328       0.27022021      -0.62199328      -1.28714820       0.60475066
I        6.12499703      24.71207764      10.01383534       0.02179835      -0.03552569       0.10039823       3.46822672      -2.41396612      -0.70783958
I        0.09519902       0.06265548       9.91973872       0.43712792       0.06480895      -0.28038091       0.66145935      -0.73969485      -4.33052860
I        4.57997390      27.91606613      16.32485645       0.00009594       0.05438890       0.09253680       1.50371438      -0.67833256      -1.75295369
I        1.97571419      25.83333524      12.08058596      -0.07556001       0.37192143       0.09167328      -0.77849900       2.05722231       0.40628722
I       12.35619116      17.79250347      10.24455973      -0.09360083      -0.50928543      -0.44544048      -0.95866803      -0.77570255      -0.50308884
I        9.95810619      22.25933049      10.05302395      -0.26134241      -0.00377060       0.00211753       0.81370363       1.41849480      -2.18804258
I       12.39001789      17.70785827      14.48077627       0.10919479      -0.23228796       0.00170785       0.30312332      -0.17547330       0.43084374
I       10.00669756      21.87822923      14.26715557       0.02587526      -0.14070234       0.48491121      -1.00017532      -2.04585410       0.84463243
I       13.82376938      20.69180810      12.20117451       0.34509335       0.21402653      -0.00120965      -0.36318252      -0.94829667      -2.69180369
I        8.81786852      18.43924073      16.89450979      -0.38124416       0.09198033      -0.15473552       0.90522898       2.19570627      -2.21484099
I       13.80663399      24.61415292      14.39468465       0.37896102       0.08478115       0.06802631       1.84943784      -0.24045309      -0.33981605
I        8.45626304       0.13696463      14.19816767      -0.06180614      -0.19733050      -0.36888799       0.66888425      -3.40185282      -1.01253047
I       13.79702269      24.68781481       9.94654655       0.06260904       0.11579093      -0.14266283       0.10515401      -2.53346370       0.49835542
I        8.97080337       0.28726046       9.94459459      -0.23712517       0.03125085      -0.02902814       0.42431268      -2.77546533      -1.40556296
I       12.52383691      27.88436878      16.89212967      -0.21229428      -0.52040566      -0.12330170       0.83615990      -0.84343790       5.04075423
I       10.11336632      26.01275405      12.52454686      -0.20103670      -0.27399545      -0.03303963       1.81785332      -1.83670602      -1.77220640
Cs      17.57464881       3.97279981       3.01369188      -0.10402334       0.18138634       0.12924122       3.39450187      -1.03221233      -0.48676108
Cs      21.18808426       6.29767377       7.58015803      -0.08096760       0.10982530       0.11832635       4.20567887       0.96014515      -4.22896749
Cs      16.73176750      11.70102545      16.57738219      -0.10368999      -0.25973582      -0.06875493       2.23178893       1.76335883      -2.85488152
Cs      21.08839876      13.62190765       4.15197534       0.04909247       0.07242882      -0.16996663      -0.49830466      -0.25706301       0.48428501
Cs      24.73178833       3.88478111       3.56153788       0.05644468      -0.07067827      -0.10745944      -0.61461478       2.22190705      -3.29904020
Cs      29.32089528       6.18023820       7.07086126      -0.16205834       0.16611158       0.21088745      -3.42428845       1.36198789       1.75844223
Cs      25.30545622      10.94239448      16.29888862      -0.20823703      -0.04128442      -0.17753612       1.49417579       0.18292052       1.23306184
Cs      28.68969334      13.52172638       3.66178565       0.00583894       0.01598538      -0.01485791      -0.10971443       0.18247593       1.33232891
Pb      18.59176698      16.07037004       8.14517758      -0.09949335       0.27979934       0.13586413       1.35468731      -0.44963723       2.94357208
Pb      22.44994410      16.28628176       7.80137078      -0.21139667       0.03922395       0.39354650       3.52659103      -0.66172660      -1.77343562
Pb      19.79624082       8.97509949       3.60796669      -0.13001129      -0.05257586      -0.46771734       3.08569609       4.19910281       4.31475436
Pb      15.84038459       9.10721573       3.89081781       0.25358300      -0.08455333      -0.35313971       2.12026698      -4.50136706      -3.20458387
Pb      26.32182562      15.92351496       8.02831544      -0.74597955       0.46246790      -0.09147314       2.77507402      -1.70619143      -1.48326334
Pb      29.90187448      16.09722755       7.82695099       0.52237526      -0.23250949       0.01010302       2.68617435       1.68316001      -2.12367718
Pb      27.47595743       8.74704802       3.26740018      -0.15933226       0.08228076       0.39029038      -2.95250881      -0.42475109       2.74177089
Pb      23.66714172       8.88864026       3.44348966       0.01594451      -0.24443758      -0.35351694       1.82916723       2.23707857      -1.54974602
I       21.06656655       3.15759843       1.44608538      -0.49173085      -0.15210031       0.07734541      -1.42061388       2.87591121       2.25648072
I       17.50690453       8.07790836       1.18936443       0.43414472       0.24350368       0.56671540       2.01578388       0.61476622       1.52674477
I       20.62827172       2.89987184       5.48976217      -0.10019667      -0.05811379       0.15973240      -1.57318799      -3.18600157       2.95619672
I       18.10663220       7.36211259       5.74263728      -0.11697307       0.17588603      -0.08952893       0.08477261       0.29800896       1.22951197
I       21.80397804       6.24068316       3.37222541      -0.35051548       0.40861022       0.03340549       0.08812488      -1.25757576      -3.78736982
I       16.72078710       4.34601549       8.02371811      -0.18636364       0.43371416      -0.15514996      -0.12972261       1.44397542      -0.03628377
I       22.22655183      10.22727168       5.68536799      -0.59683713       0.01643040       0.04462782       3.67626641       0.32961388       0.49027701
I       16.47962485      14.61228388       5.98177541      -0.09947234       0.06250782       0.25862131      -0.54237551       5.15828700       2.03765505
I       21.88426913      10.17289076       1.19069783      -0.19898641      -0.07691849       0.17114559      -3.61781145       0.17103511       1.67419908
I       16.45546897      14.76444795       1.81157358       0.20904174       0.13426564      -0.11470446       0.52104762       0.95273247       1.56257301
I       20.41023469      13.51972457       7.99803844       0.18748995      -0.20758849       0.02471828       2.81449071       1.00026784      -3.95744327
I       17.90652813      11.66480431       4.01412907       0.19637527      -0.45303179      -0.00497078       1.65347460       2.02494662       2.02331471
I       28.46492434       2.88943162       1.59823233       0.08747852      -0.30802131      -0.16617460       2.85446739       1.67706628      -2.34559119
I       25.51816588       8.03116776       0.76219675       0.34249295       0.01942668       0.14201687       1.39970641       3.62224058       1.63286455