320
Lattice="31.392636507215773 -0.04481615214523286 0.09492011689125937 0.1392903615087138 28.887165468702893 0.25788863917263216 -0.2799812260619887 -0.14238296324623026 16.953981605175922" Properties=species:S:1:pos:R:3:forces:R:3:momenta:R:3 energy=-977.149437034086 stress="0.0 0.0 0.0 0.0 0.0 0.0 0.0 0.0 0.0" pbc="T T T"
Cs       1.24603973       3.78460716       3.62000171       0.10868074       0.01142186       0.08194524      -0.07420352      -0.45058497      -1.28938029
Cs       5.71889225       5.88611511       7.98797887       0.02033355       0.10912592       0.00244941      -0.02958117       0.63141500       2.91691052
Cs       1.53571590      11.04715148      16.41882691      -0.11753403      -0.11911744       0.11370053       1.21335439      -0.88158996      -0.24908253
Cs       4.91416294      13.14771624       3.41812838       0.17828045       0.30040026       0.13455335      -0.96361799       0.54565367       0.41973830
Cs       9.13968401       3.43991898       3.71484535      -0.04945231       0.10894215       0.00265853       0.86964920       1.38269935      -0.20496154
Cs      12.86875311       6.02734107       7.94795025       0.12191376      -0.04350077      -0.03011838       1.64498978       2.69917981      -1.97377557
Cs       9.17765862      10.68817522      16.63210429       0.08271377       0.12234610       0.04688916      -3.42040082      -2.21558460       1.75015025
Cs      13.57195208      13.32075275       3.78160531      -0.08240974      -0.09881563       0.08111179      -0.63272657       0.10403649       2.15845824
Pb       2.80231802      16.21234069       7.67756833      -0.05972956      -0.46059303      -0.16769764       0.29025397      -0.34583184      -2.62854714
Pb       6.65804776      16.01143259       8.02197437       0.63738691      -0.19016423      -0.35315780      -0.64786017       0.84355174      -0.08804616
Pb       4.15164443       8.58069668       3.81604523      -0.38852489       0.00205124       0.02155286       3.20041917      -0.38566756       2.92121696
Pb       0.04934867       8.38486309       4.12948351       0.10427366      -0.14867252      -0.09314010      -0.55892617       1.97867037       0.19751173
Pb      10.72515790      15.71773916       8.29277132      -1.05833296      -0.14278063      -0.35817519      -3.40591040      -0.86142768      -3.77008566
Pb      14.59310103      15.79971079       8.22591739       0.32339470      -0.12553224      -0.19506894      -1.16756140       1.46382282       0.81311602
Pb      11.83129785       8.39435211       3.78614616       0.15972404       0.07444868       0.39008970      -1.36950026      -1.51011062       3.31764704
Pb       7.90716141       8.76827711       4.19566466       0.40386956      -0.19563350      -0.24633602      -3.54726497       1.54393365      -1.00069711
I        4.87829970       2.85969956       1.73531055      -0.10611427       0.06150178      -0.02520880       0.66616250       0.02967756      -1.64959098
I        2.14550239       7.63009011       1.45633586      -0.16305570       0.14879908       0.25998748       1.41580731      -0.16404921      -0.28384585
I        5.15874733       2.71137988       5.71127923      -0.25622761      -0.18494077       0.16562778       3.33693903       3.63818354       3.18094883
I        2.51279193       6.89679142       5.90195486      -0.25859256       0.00091526       0.03693321       1.44566062       0.32284553       0.61824533
I        6.17224127       6.05398998       3.94991426      -0.04133014       0.31449735      -0.16617136       1.57136860       0.69697898       0.01472234
I        0.75962947       3.95806197       7.63691389      -0.25583799      -0.23332947       0.08702833      -1.35501539      -1.26835098       1.00030437
I        5.75811813       9.82482648       6.27281737       0.11548388       0.07188064       0.18751784      -2.18236118      -0.46608034      -0.96218940
I        0.45376484      14.67676744       5.60987204       0.18946583       0.12601008       0.17783944      -0.68207723       0.44980059      -1.14494006
I        6.22785802      10.27796255       1.96847799      -0.22852282       0.23758856      -0.45470159      -2.08362731       0.85798353       3.22257987
I        1.35212832      14.37221814       1.55832990      -0.21832387       0.04195210       0.03377953      -1.12855970       2.92743091      -0.76586018
I        4.57844216      13.64280618       7.85727688      -0.20095220      -0.45356175       0.02324597       1.43379723      -4.51392846       0.39495975
I        1.85861023      11.00956868       4.62810043       0.03030057      -0.21778857      -0.15858603       0.93211966       1.79358600       0.00479443
I       12.54666826       2.83216005       1.61549862       0.18737312      -0.16985505      -0.09277924      -0.54211140       0.42053832      -1.70754040
I        9.75467086       7.69402298       1.46593968      -0.11534587      -0.08523808       0.15776633      -2.85822907      -1.05664798      -2.78229425
I       12.41355896       2.10824801       5.48344932       0.09771213       0.14217869       0.14053432       1.42715719      -1.49238183       2.13465593
I        9.70217392       6.84548920       5.90210077       0.25829864       0.10229377      -0.12561308       1.76423022      -0.81852967      -0.03660585
I       13.71571924       5.73820332       3.95610045       0.22180261       0.02462252      -0.09789945       0.97078868      -1.00599102      -3.44526197
I        8.95449051       3.76193498       8.29056556      -0.12793762      -0.11689229       0.00206679       2.83579248      -4.12814692       3.05494094
I       13.77266932       9.20553265       6.45734594       0.19294383      -0.00351796      -0.36038224      -5.00092585      -0.28103007       0.52422312
I        8.53106887      14.55944451       5.76425837       0.07186450       0.26703255       0.35864124      -0.27037114      -1.12701238      -1.42118076
I       13.98395982       9.98541932       1.89187143      -0.08206072      -0.11608457       0.06186770       0.53979915       0.83652542       2.51517339
I        8.51444623      14.07462680       1.52326886      -0.11433040       0.28470245      -0.30614043      -0.72688227      -0.47638329      -3.62357488
I       12.38881151      13.13019151       8.25961836       0.41651666       0.09163348      -0.13402865       0.17569077       0.58302210       0.81827545
I       10.31218765      11.11762724       4.37427905      -0.21785260       0.04246360      -0.01200415       1.21491824      -0.13524662      -1.83055148
Cs       1.62613390       4.29141221      11.64956916       0.00967979      -0.28380715       0.12671842      -1.67122077      -0.94748732       0.39262277
Cs       5.28498642       6.31744539      16.27463128       0.04398025      -0.03551123       0.20398686      -0.78162864      -0.94886347       2.28893842
Cs       1.27101736      10.80341505       8.35195131       0.18263201       0.16617721      -0.09548938      -2.27670616       0.39240237      -0.68203969
Cs       4.63992679      13.92459161      12.29331439       0.10564096       0.04305764      -0.09839955      -2.47052159       1.14454522      -0.40168606
Cs       9.19046546       3.82311765      12.22090949      -0.01606111      -0.08574416       0.02180258      -0.71719648      -2.35029253       1.05920647
Cs      13.21884952       6.18399215      16.83090318      -0.05283010      -0.04998765       0.04048619       1.97688012       0.08162071      -0.50890825
Cs       9.02421696      11.10704503       8.29163005       0.05911744       0.07217352      -0.16437780       1.82786894       0.96063102      -2.31446302
Cs      13.28714295      13.41237786      12.37153598       0.05632867      -0.00242769       0.01417999       0.63465727      -2.31320620      -2.30104217
Pb       2.33396441      15.95073589      16.01803116       0.39525028      -0.00919654       0.29637181       2.20931146      -0.29096892      -1.83463829
Pb       6.29176050      15.94481457      16.46469303       0.04504427      -0.23220221       0.27969460      -1.69263056      -1.53940032       2.85186705
Pb       4.02183332       8.62283071      12.32950864       0.25570446       0.16223770       0.25629905       0.34274668       1.79021929       0.24192792
Pb       0.12499486       8.47129583      12.35431904      -0.18030466       0.20607125      -0.12480041       1.45361948       0.86748001      -0.50961252
Pb      10.31031154      15.42771460      16.48226755       0.16924574       0.19669928       0.13950100       1.07449500       5.86557082      -3.61001877
Pb      14.41650425      15.88383002      17.08468750       0.00885284      -0.25794703      -0.32934280      -2.86357752       1.52380445      -1.42810446
Pb      12.01744919       8.64312238      12.48043304      -0.05047680       0.16029474      -0.43848148       1.43254032      -0.24019821       0.67760946
Pb       8.11057331       8.85529573      12.28670247      -0.39982698      -0.12961233       0.06275996       0.42575005       1.46385581       4.33961453
I        4.67423852       2.80267322      10.01120455      -0.02845977      -0.12160889       0.08219810       2.63836752      -1.74135817       0.41064312
I        2.34399675       7.26544577      10.17214140      -0.30369194      -0.10106333      -0.37044482      -1.00699692      -0.57658052       2.37114506
I        4.54794742       2.72877090      14.35776624      -0.16076104       0.07121557      -0.16816015       0.86150415      -1.35659695       0.31051207
I        2.09572090       6.82324919      14.38270884      -0.02257371       0.25226940      -0.22754820      -1.22851998       1.84792998       1.62938090
I        6.02086722       6.19911058      12.13133163       0.27416088       0.07947622      -0.00511652       1.65871920      -0.41357896       0.84776921
I        0.49007303       4.04719590      16.96028740       0.10959771      -0.21919555      -0.06746607       1.16608358       0.60956436      -2.29846732
I        5.94126041       9.75232895      14.68617512       0.23138661      -0.01829172      -0.07199967      -1.59752005      -0.69664840       0.69027479
I        0.15597811      14.65785702      14.04120050       0.12260699       0.03205232      -0.04006940      -0.44414817       0.50987975      -3.36399350
I        6.05725959      10.38598414      10.41392293      -0.16980650      -0.07040406      -0.02172418      -0.72633300       0.57114612       2.11982949
I        0.89814722      14.60346077       9.93300537       0.09630606       0.07435326       0.00053139      -1.91284355      -1.98780964      -0.45634624
I        4.25754418      13.47603677      16.02884089       0.12600444      -0.47963124      -0.05734366      -1.17833311      -2.06969827       1.16167610
I        2.01142391      11.20967143      12.64250937      -0.17286224      -0.27309428      -0.08076064      -0.50502816       0.36554874      -1.31276603
I       12.50218345       2.75437932      10.15013010       0.07288902      -0.21166626      -0.04771088      -0.91974548       0.21157268       0.10676720
I       10.07526441       7.92459979       9.76358447      -0.11729433      -0.04331972       0.53914917      -1.08365973       0.44497360       0.38064804
I       12.64339623       2.79532754      14.23567837      -0.26406148      -0.03426583       0.01463625      -0.12392781       1.83889266      -0.32688280
I       10.08288460       7.50261167      14.54469381      -0.15066365      -0.27462917       0.01092999       0.73337019       0.20048902      -1.45201045
I       13.70155301       6.03930952      11.91098880       0.21576813       0.03962931       0.09724102       2.23996551      -1.15834321      -1.45576237
I        8.36011610       3.99485686      16.38697996       0.40622548       0.06179161      -0.03927662      -0.06278657      -0.72004748       3.26763306
I       14.07816083       9.47113462      14.86709368      -0.00669842      -0.02516397      -0.15308890      -0.13449204      -3.73973991      -1.20815747
I        8.24222460      14.62060789      14.28937447       0.02089608      -0.13195141      -0.31205679       0.39241827      -0.49925396       1.00382158
I       14.29268242      10.00071560      10.40653759      -0.19252304       0.23799620      -0.11311442      -2.82477075      -1.39483879       0.93882637
I        8.31666909      14.20542922      10.16431023       0.06292741       0.18919297       0.09339319       0.31701808      -0.17035057      -2.72924657
I       12.50654113      13.10264271      16.12477809      -0.06657086       0.12047062       0.13755630      -1.72285739      -1.50487122      -0.40778680
I       10.17504341      11.24117603      12.43269347      -0.11115724       0.16814605       0.14385126      -1.97728426       0.67675381      -1.77138781
Cs       1.28116818      18.04152781       3.88180802      -0.00282236       0.04994235      -0.08710988      -3.33118619       0.73588700      -3.00703964
Cs       5.29621252      20.71697499       8.07697356       0.11940070      -0.08331134       0.01095440      -0.14067758      -0.33934304      -1.51332057
Cs       1.30424476      25.38484358      16.48790607       0.11711163       0.08743495      -0.00046637      -1.15415035      -0.80461629      -1.35649267
Cs       5.40701510      28.14579506       3.46482458      -0.01012667       0.04750111       0.14384070      -1.44450704       3.89260239      -1.78164721
Cs       9.22694393      18.10366427       4.15672569      -0.05383678      -0.10592659      -0.02391557      -0.76311999       0.91952343       0.14432029
Cs      13.33683087      20.99148777       8.34593215      -0.03364657      -0.09877512      -0.15185986       1.61828836       0.58481706       1.57841003
Cs       9.23529372      25.15900694      16.75631197       0.11011263       0.19336698       0.01923220       0.57480502      -1.28044486      -0.24537489
Cs      13.26954521      27.90785586       3.78185363       0.12863323       0.10870377       0.04119233       0.82927962      -1.83514285      -0.87775485
Pb       2.85750253       1.37046162       7.65949473       0.35708660       0.35719560       0.26911947       4.86880113      -0.96770143       1.58441822
Pb       6.87617338       1.12978024       8.09924140      -0.06571863       0.42695502       0.07787393       3.36412580      -4.24196777       0.92042899
Pb       4.19725053      23.28814716       3.78593264       0.13707523      -0.38202100      -0.21139398       0.98491393       1.20229348       0.98488108
Pb       0.18417640      23.09650067       3.71744278       0.09817432       0.10471079      -0.16641690       1.61212468       2.57799800       3.16205319
Pb      10.70095382       1.08262752       8.00982118      -0.11174771       0.02880384       0.06575781      -1.26569339      -1.04013823       0.41792939
Pb      14.56812029       1.42532233       8.01429733       0.05826350      -0.09442997      -0.27080168       0.04074136       0.39325671      -1.39451338
Pb      12.03663697      22.99608888       3.86829605      -0.17783788      -0.08260459      -0.19035678      -3.57248262      -0.02107334      -0.73867020
Pb       8.01111023      23.16851103       3.69893495       0.12538924      -0.09258876      -0.17282064       2.00802528       1.80475712      -0.57657927
I        4.41851618      17.08995220       1.61407812      -0.02044760       0.04719206      -0.09495279       0.29018457       3.16465762      -0.02758468
I        2.33758846      22.08898493       1.45184668       0.03156209       0.03379483       0.07072131       2.24103715       3.23067392       1.79799329
I        5.07475451      17.09472212       5.42056529      -0.38077363       0.11520799       0.14968808      -2.04341338      -2.45216889       0.76308364
I        2.14425206      21.53395147       5.70768342       0.19201273       0.17483148      -0.00145874      -0.87649978      -2.15751732       1.12624149
I        6.26910747      20.49546798       3.70434518      -0.12387017       0.52154617      -0.21891926       0.98449352       0.81344294       2.16026894
I        0.61720188      18.52953427       7.73462278      -0.12718897       0.29958002       0.06813294      -1.39086697      -0.77001597      -2.77493319
I        6.28311359      23.89994868       6.29451524      -0.15967411       0.28515324      -0.03302627       1.01163235      -1.75227774       0.98711619
I        0.98001469       0.24841508       5.50683777      -0.12569102      -0.32887461      -0.31275318      -0.13245741       1.91084032       1.82176997
I        6.25394953      24.96397088       1.50545596      -0.19585389      -0.53155187       0.71119522      -1.56157045       3.59795401      -2.17318560
I        0.92911258      -0.06875869       1.69220242      -0.09354581       0.14194376      -0.25248342      -3.33110628      -1.05979426       0.22926784
I        4.89793580      27.78810213       7.99308315      -0.11184612      -0.38978864      -0.05021892       4.36071556      -0.10264863      -1.30199255
I        2.29691984      25.67381522       4.09708109       0.03573867       0.04994042       0.03445121       2.26863855       1.28807766       0.68487011
I       12.28245322      16.83188645       2.08687655       0.08525082       0.00992516       0.08447705       0.10179142       1.30518558       1.76095161
I       10.15403580      21.78904303       1.59739988      -0.00784461       0.06635726      -0.01400401       0.13027559       2.45092857      -0.07239325
I       12.54851130      17.31111804       6.38076402       0.20114240       0.11386067      -0.28081794      -0.21884881       0.35880706       0.20099592
I        9.82644101      21.53879104       5.75474988       0.30413600       0.14777398       0.14895976       1.37520142      -0.72482373      -1.31530752
I       14.11686922      20.48271121       3.70267616      -0.00463406       0.10419636      -0.02102063       0.44616533       1.25573890       0.46733977
I        8.67413884      18.55067178       8.21173224       0.10987499      -0.38168000       0.11109979      -1.25175004      -0.70910886      -1.79387174
I       14.09194873      24.35451445       5.97617502      -0.00392139       0.03281077       0.03026648       0.62345591      -0.36583143      -0.62497648
I        8.56169206      -0.23171671       5.92210823       0.08554963      -0.05337866      -0.12838041      -2.06478479       0.14648923       2.17314186
I       13.89921521      24.25501481       1.30118730      -0.11222287       0.00624202       0.31340107       3.82406889       0.86715414      -0.19806105
I        8.72331917       0.56702014       1.92978036       0.34185493      -0.15920610      -0.24000972      -1.06665854       1.64999791       1.03284432
I       12.87396378      27.54583297       7.97445967       0.05104098      -0.11118098       0.19262117       1.19934130       1.71487267       2.02687103
I       10.34768174      25.75291613       3.91457004      -0.21809483      -0.38167623      -0.04016400      -1.85610368      -1.42066799       0.69520668
Cs       1.05661181      18.03685411      12.13429017       0.01911221       0.02663554      -0.03254858      -0.46246386       2.65115226      -2.12947964
Cs       5.27560703      20.92327293      16.33219873       0.10536868      -0.04764668       0.09039413       0.06032616       2.24210358       2.36858246
Cs       1.73963691      25.07609475       7.93761850       0.05300283       0.08643819       0.09114089      -0.22468099       0.92981117       1.69066259
Cs       4.99291810      27.91174470      12.68801171       0.09722276       0.12574971      -0.05613603       2.03935220       2.14388547       0.15772572
Cs       9.05441723      17.87434035      12.62295773      -0.02554756       0.07332753      -0.13390521       0.70457044       0.07649530       0.16248952
Cs      12.94522416      20.64114869      16.12768816       0.14873351      -0.09936197       0.19719651       2.37757956       0.76135168       3.22881870
Cs       9.45767317      25.36869405       7.81642537       0.02476736       0.01194935       0.13252051       5.38795640      -0.48769905       0.25813339
Cs      13.57718183      27.49139623      12.15276751      -0.10776790       0.12250274       0.05085859      -0.31654808      -0.96992561      -0.94203049
Pb       2.51795530       1.42155823      16.54177815       0.29543155       0.05337833       0.02917446       0.62510209      -3.38900878       1.00185177
Pb       6.59626273       1.44133709      16.47417862      -0.03989721       0.00650008      -0.11558099       1.46681363      -1.14991846      -4.21465389
Pb       3.82872898      23.02355972      12.36084244       0.23888586       0.16159116       0.22431488       2.35538100      -0.26910080       2.18538349
Pb      -0.11201021      23.05959372      12.30383405       0.21922866      -0.20693175       0.08116138      -2.73360929      -1.82865100       1.03870944
Pb      10.59965645       1.41774895      16.36350619      -0.39102399      -0.04777327      -0.19531862      -6.83471096       1.66224733       2.58169187
Pb      14.39185936       1.15767251      16.34205477       0.00550425       0.17542351       0.26671991      -2.05441014       0.92558400      -0.39519504
Pb      11.63408895      22.94509239      12.45312382       0.27308368      -0.07151759      -0.19878968      -0.35392875       2.99755592       4.27194365
Pb       7.86219489      23.19449099      12.36117847      -0.53214224      -0.02019927      -0.13962124      -1.45513577       0.97282951       3.48477750
I        4.54764064      17.49859074       9.92563693      -0.20834184       0.14556108       0.22539039       1.14363189      -0.72135695      -0.66882477
I        1.97153990      21.68275452      10.09852991       0.09904299       0.16264339       0.06097434      -2.27217701      -0.55995949      -0.49260250
I        4.47478490      17.52526770      14.09415727       0.13522674      -0.19169729       0.16001272       0.25253398      -1.65898886      -2.32471864
I        1.99685289      21.47009363      14.43258831      -0.12235873       0.08527841      -0.08200060      -0.37691753       1.17906546       0.44346111
I        6.02682895      20.55109413      12.41609373      -0.04780482       0.20534191      -0.03093435      -0.04527026      -1.15057512      -0.75818129
I        0.48705539      18.42077076      16.75677438      -0.05302707       0.38710624      -0.01686770      -0.92550993       2.30768397      -1.42956180
I        6.01492708      24.67366971      14.66063291      -0.16727467      -0.42355698      -0.68775259       2.28730345      -2.15245066      -1.64895206
I        0.75782656       0.34129320      14.12880043       0.01630134       0.10108755      -0.06895188       0.64904060       0.20271954      -0.54164451
I        5.81323574      24.43103300      10.21060133      -0.03092660       0.09244378      -0.07585258      -1.23392570      -1.26121035      -0.38106152
I        0.99394213      -0.18962078       9.97777837      -0.02372951       0.25907593      -0.35008869       1.20935893      -1.22311026      -1.64716074
I        4.73794662      27.82050438      16.94201988      -0.36878490      -0.01908835      -0.10915065       0.04217543       1.70672413       0.66780281
I        1.91301297      25.68797842      12.77549443       0.03187050      -0.43037700      -0.12178929       0.41292455      -0.20657569       1.46560339
I       12.56427236      16.61865923      10.51320813       0.08783920       0.32931248       0.41627086       1.45238886      -1.11987328       0.41939200
I        9.91789527      21.81648924      10.09455892      -0.14092224       0.07444572       0.01352875      -0.08845421       1.19298058       0.92947478
I       12.66178153      17.06149667      14.55856677      -0.25951733      -0.11263279       0.29036780      -1.06749736      -2.48601631       0.92247851
I        9.58704281      21.74247379      14.44499503       0.02852081      -0.42900772       0.53674153      -0.49891325      -0.68708717       1.75012432
I       13.71090227      20.25662191      12.42595441       0.05189437      -0.03451327      -0.02420205      -0.09083303       1.01336540      -1.58049119
I        8.31400821      18.19365732      16.97472548       0.33039924       0.20290752      -0.11744232       0.54479613       1.78617365       1.58424462
I       13.87273343      24.23497995      14.48392591      -0.06366869       0.06821302       0.01823830       1.85418992       0.05691281      -2.63196426
I        8.41059826       0.15670134      14.12043972       0.02760920       0.01841453       0.24327692      -1.04698219      -0.49689050       2.58357959
I       13.58853375      24.05616992      10.10861330       0.09711789       0.14724522      -0.22516313      -0.47373658      -1.33346715      -0.42660825
I        8.70976987      -0.27489806      10.30041986      -0.01736871       0.05532302      -0.15928202      -1.32088323       0.64586843       1.09099544
I       12.54179254      27.61085649      16.34626124      -0.35767734      -0.01864583       0.03849940       0.32338041       2.22878261       0.21164202
I       10.03670808      25.46053902      12.58217451       0.02226808       0.47082648       0.02121648       0.22391741       1.89646762      -1.18514028
Cs      16.88862852       3.13162285       3.93676707      -0.02313498       0.10680529      -0.04930940       0.24608437       0.89492344      -0.30027897
Cs      21.46465636       6.62904513       7.98682636      -0.07274644      -0.02019564       0.09241282       3.18070827      -0.11859923       2.19401516
Cs      17.26965980      10.65799963      16.66319531      -0.00809373      -0.01159841       0.12833639       0.99882639       2.79921069       0.51575548
Cs      20.98604633      13.25052632       3.60367063      -0.12646481       0.18787860       0.04605490       0.25233258      -1.06871227      -0.25348854
Cs      24.65234235       3.99821724       3.92395402       0.27669115      -0.21357244      -0.14095597       0.04108432      -2.13233311       1.90058389
Cs      28.49252724       6.05220171       8.37589270       0.07757266      -0.10854359      -0.16444799       0.87152200       1.16175823       2.66827817
Cs      24.28883288      11.35150556      16.71161152       0.16855046      -0.09572649      -0.13158917      -3.64000067      -0.53565487      -3.35904922
Cs      28.88340895      13.58147804       3.52346820      -0.00886008      -0.01124415       0.04743634       0.65197904       1.80175229       0.38343092
Pb      18.57321361      15.91721626       8.10285870       0.16094711       0.39684219      -0.34578742      -3.35596665      -0.54501323      -2.13138942
Pb      22.51532304      15.93771516       7.93351339      -0.59978507       0.35083563      -0.09855358       0.87984462      -3.91528121      -1.66275972
Pb      19.74855793       8.44437943       3.78687047      -0.45782820       0.29327910       0.02834540      -2.18158089       0.67549584       0.77969141
Pb      15.91809876       8.19360044       3.97954002      -0.82210386       0.25817155       0.16565116       3.37075393      -1.82706253       5.22204461
Pb      26.42295810      15.88695502       7.93893329      -0.18157366      -0.13861657      -0.01068864      -1.01366436       4.12667754      -4.94998203
Pb      30.17350186      15.97196736       7.99368483       0.15611963      -0.55854111      -0.04172360      -3.59623172       1.58601975      -2.55700537
Pb      27.49077356       8.68693605       3.68958204      -0.01854384      -0.04188989       0.10076363       1.72773480      -2.16052572       0.27186165
Pb      23.57943764       8.76934455       3.52246776       0.22619453       0.24211128      -0.03698699      -3.35469594       1.48929207      -0.43470494
I       20.69804660       2.58794676       1.94233585      -0.23397892      -0.04730860      -0.13739201      -1.28546994       0.87949912       1.80903584
I       17.64110982       7.10750497       1.62120908       0.29972499       0.12036532      -0.07478180      -0.90023067       1.47096041      -0.37150543
I       20.70615923       3.22689248       5.99890374      -0.27314179      -0.12083353       0.15709221      -2.28910223       0.55275768      -0.26667059
I       17.82880153       6.93302301       5.87486221       0.35938592      -0.11684317       0.19655837       0.98383986      -1.19950465       0.25612820
I       21.93227359       6.17661690       3.42820440      -0.30282690      -0.15584073      -0.00130204       0.58824621      -1.09275375       1.90150542
I       16.44754217       3.92784408       7.83745131      -0.07198564       0.07043699       0.07584773      -2.15697806      -0.24627847       1.71994216
I       21.76106674       9.94979975       5.93829655      -0.10224873      -0.11472890      -0.09462949      -1.39684285      -2.43937164       0.04217487
I       16.51397564      14.91804094       5.61443669      -0.01946240       0.07086095       0.47621806       0.05197076       1.11988055       1.64211568
I       21.27680543      10.23310610       1.58582096       0.11225836      -0.15717912      -0.03864147      -1.17411981      -0.72239371      -1.20254144
I       17.09165803      14.21161699       1.72913608      -0.03568970       0.30562437      -0.25722633      -0.95056048       2.38761661      -0.87461816
I       20.52898470      13.43744917       7.41848483      -0.15349385      -0.08059363       0.21468999       2.34068947      -1.34947202       0.53318170
I       17.48748575      10.96780126       3.98108209       0.37060260      -0.16455627       0.09008222      -0.88730350       1.38752732      -2.72977113
I       28.15102247       2.39891601       1.67974741      -0.08178393      -0.01097252       0.05371189       1.33100936      -3.32120552      -2.22664298
I       25.59088827       7.54786327       1.31243634       0.07004537       0.14539788       0.29361492       1.20905287      -2.10569606       0.45557289