320
Lattice="35.78794042575779 -0.37839846603646177 -0.24217113649280456 0.2257959835333163 21.00955516298944 -0.015306901360210465 0.11054213265190213 0.01896394099226511 19.312856914076352" Properties=species:S:1:pos:R:3:forces:R:3:momenta:R:3 pbc="T T T"
Cs       7.40350535       4.09530113       6.55182537      -0.06912037      -0.04483366      -0.00680611      -0.30631167      -0.88570000       4.72382280
Cs      13.67568794      12.77353991       4.15882061      -0.08905274      -0.07548623       0.00024993      -0.35540285      -1.49067351      -0.04519929
Cs       4.38187314       9.50326651       6.54058236       0.22399580      -0.08243111       0.18287873      -1.35307792       0.06131312      -0.62173298
Cs      16.29855213       7.61162327       4.01243535       0.07131317      -0.17575864       0.16661285      -0.29342196      -2.23573694      -1.06965635
Cs       7.22182570       4.10338294      11.40984294       0.09906555      -0.05036474      -0.01161116      -0.64870525      -1.97992209      -2.30386274
Cs      13.50429471      12.82889014       9.08045630       0.14636454      -0.08337566      -0.09795213      -0.14125721      -1.05717668      -1.30439678
Cs       4.78763116       9.32602953      11.50328954      -0.07469963       0.02033456      -0.20751404      -1.17304070       1.07892252      -1.52695361
Cs      16.36760147       7.29039517       9.02855905       0.09800026       0.10328417      -0.11170730       0.20332890      -0.76253495      -0.53150708
Pb       2.61553334       4.87125151       4.26348329      -0.25362383      -0.16559333       0.21795147       1.34150967       5.41510506       2.74207539
Pb      18.22573736      11.96526953       6.33165755       0.47594817      -0.25395771       0.40608831      -1.05063748       0.26957449      -0.14082928
Pb       9.32651079      10.04838449       4.28964606       0.15738630       0.07347058      -0.01078069      -0.07060219       3.60266372      -0.74024245
Pb      11.48009923       6.59272460       6.39635679      -0.14825864       0.13423604       0.04250663       0.55567828       1.96174174      -0.28340389
Pb       2.54452961       4.92036527       9.14733042       0.20338727      -0.11660283      -0.25587809       3.62525871       1.39035171      -0.53557280
Pb      18.46444862      11.81898329      11.31718707       0.06077052       0.04004135      -0.18793510      -0.02859215      -0.74058368      -1.51834834
Pb       9.55602785      10.23614916       9.08924294      -0.39187535      -0.04399149      -0.08374347      -1.06349758      -1.62956473       0.97553012
Pb      11.57855254       6.93866739      11.10604954       0.07128534      -0.41754114       0.27541105      -2.55024786      -2.59100107       1.67262870
I        1.71932232       6.89594131       6.61599361      -0.27997738      -0.13736292       0.18022641      -0.59455349       0.30249684      -0.38140448
I        1.66837544      10.24190698       4.18959036      -0.14162111      -0.12182049      -0.16379245       0.15622396      -1.43574464       4.15022848
I       10.63264695      11.90852193       6.65546294      -0.00942546       0.14265644      -0.21511837       0.96315295       0.92544730      -0.94177383
I       10.34045264       4.89865276       3.98884256       0.10320744       0.12203713      -0.03562114      -1.64606642       1.79026506      -1.20079912
I       17.30387899       3.38252617       4.20147177      -0.10606259       0.16531536      -0.27776531       1.73083029      -2.39292967       0.07944099
I        3.46695539      13.27637990       6.72523021       0.16320356       0.21059756      -0.07545107       1.08621653      -0.58835959       3.44943709
I       12.47363479       8.65828422       4.01261960      -0.02574685       0.08732119       0.15331569       0.44325242      -1.00121141       1.38555389
I        8.24923538       8.19781261       6.80265312       0.39609711      -0.06118901      -0.33311938       0.71273081      -0.58708271      -1.41949725
I        5.18760513       6.29861779       4.15669645       0.43744005       0.18721725       0.08354510       0.88350415      -0.16181539       1.65266533
I       15.70219035      10.33104603       6.52922891      -0.43827803      -0.02643998       0.05082666       1.23405856       0.98239923       0.03823820
I        6.67556120      11.55740393       4.27938173       0.01108775       0.10789569      -0.07204603      -1.03110727       1.02458163       1.92271147
I       14.17614492       5.07363016       6.65165690       0.01200356       0.23707288      -0.12823972       1.22617980       0.77221060       0.53001952
I        1.69116393       6.77585878      11.51424231      -0.25003684       0.12578826       0.05537898       1.10467858       2.06875181       1.01140498
I        1.60423148      10.16265997       9.01233104      -0.13179379       0.16951771       0.15117260       0.48058524       0.21532375       0.76456080
I       10.65988508      12.01567944      11.37890333      -0.14532516      -0.08280314       0.39881271      -0.21064241      -0.32784266       1.69132493
I       10.34678440       4.86696640       8.94100971       0.04272941       0.10129230      -0.04458377       0.91528652      -0.81945750      -0.90190070
I       17.38531579       3.31448364       8.81207048      -0.08504573       0.18668421       0.20313863       0.67460093      -1.12445317      -1.10945140
I        3.59641823      13.31892299      11.63129311       0.09581205       0.05950791      -0.32163114      -1.46749969      -1.33744839       1.34215960
I       12.54072668       8.85067877       8.76201935       0.05948971      -0.22816717       0.01950862       0.06329531       2.05654754       1.19901017
I        8.47508659       8.17441108      11.47235659       0.05000428      -0.09529598      -0.03802213      -1.69755415      -1.48046772       0.93567606
I        5.32463441       6.30066482       8.87264668      -0.04813058       0.06145774       0.10806238      -2.71904593       2.42142158      -0.69558395
I       15.68137009      10.51606078      11.27143010      -0.13031945      -0.13526923       0.04741897       1.34868130      -1.75130777      -1.56825062
I        6.75542480      11.68952282       9.02695131       0.03688748      -0.08255452      -0.01769985       0.59177573      -0.71667370       0.29524705
I       14.30565936       5.22630910      11.43611832      -0.19708578       0.14511063      -0.04608726       1.04456923       1.70122084       1.33172106
Cs       7.45877642       4.10478310      16.20825383      -0.06912037      -0.04483366      -0.00680611      -0.30631167      -0.88570000       4.72382280
Cs      13.73095901      12.78302188      13.81524907      -0.08905274      -0.07548623       0.00024993      -0.35540285      -1.49067351      -0.04519929
Cs       4.43714421       9.51274848      16.19701082       0.22399580      -0.08243111       0.18287873      -1.35307792       0.06131312      -0.62173298
Cs      16.35382320       7.62110524      13.66886381       0.07131317      -0.17575864       0.16661285      -0.29342196      -2.23573694      -1.06965635
Cs       7.16655463       4.09390097       1.75341448       0.09906555      -0.05036474      -0.01161116      -0.64870525      -1.97992209      -2.30386274
Cs      13.55956578      12.83837211      18.73688476       0.14636454      -0.08337566      -0.09795213      -0.14125721      -1.05717668      -1.30439678
Cs       4.73236009       9.31654756       1.84686108      -0.07469963       0.02033456      -0.20751404      -1.17304070       1.07892252      -1.52695361
Cs      16.42287254       7.29987714      18.68498751       0.09800026       0.10328417      -0.11170730       0.20332890      -0.76253495      -0.53150708
Pb       2.67080441       4.88073348      13.91991175      -0.25362383      -0.16559333       0.21795147       1.34150967       5.41510506       2.74207539
Pb      18.28100843      11.97475150      15.98808601       0.47594817      -0.25395771       0.40608831      -1.05063748       0.26957449      -0.14082928
Pb       9.38178186      10.05786646      13.94607452       0.15738630       0.07347058      -0.01078069      -0.07060219       3.60266372      -0.74024245
Pb      11.53537030       6.60220657      16.05278525      -0.14825864       0.13423604       0.04250663       0.55567828       1.96174174      -0.28340389
Pb       2.59980068       4.92984724      18.80375888       0.20338727      -0.11660283      -0.25587809       3.62525871       1.39035171      -0.53557280
Pb      18.40917755      11.80950132       1.66075861       0.06077052       0.04004135      -0.18793510      -0.02859215      -0.74058368      -1.51834834
Pb       9.61129892      10.24563113      18.74567140      -0.39187535      -0.04399149      -0.08374347      -1.06349758      -1.62956473       0.97553012
Pb      11.52328147       6.92918542       1.44962108       0.07128534      -0.41754114       0.27541105      -2.55024786      -2.59100107       1.67262870
I        1.77459339       6.90542328      16.27242207      -0.27997738      -0.13736292       0.18022641      -0.59455349       0.30249684      -0.38140448
I        1.72364651      10.25138895      13.84601882      -0.14162111      -0.12182049      -0.16379245       0.15622396      -1.43574464       4.15022848
I       10.68791802      11.91800390      16.31189140      -0.00942546       0.14265644      -0.21511837       0.96315295       0.92544730      -0.94177383
I       10.39572371       4.90813473      13.64527102       0.10320744       0.12203713      -0.03562114      -1.64606642       1.79026506      -1.20079912
I       17.35915006       3.39200814      13.85790023      -0.10606259       0.16531536      -0.27776531       1.73083029      -2.39292967       0.07944099
I        3.52222646      13.28586187      16.38165867       0.16320356       0.21059756      -0.07545107       1.08621653      -0.58835959       3.44943709
I       12.52890586       8.66776619      13.66904806      -0.02574685       0.08732119       0.15331569       0.44325242      -1.00121141       1.38555389
I        8.30450645       8.20729458      16.45908158       0.39609711      -0.06118901      -0.33311938       0.71273081      -0.58708271      -1.41949725
I        5.24287620       6.30809976      13.81312491       0.43744005       0.18721725       0.08354510       0.88350415      -0.16181539       1.65266533
I       15.75746142      10.34052800      16.18565737      -0.43827803      -0.02643998       0.05082666       1.23405856       0.98239923       0.03823820
I        6.73083227      11.56688590      13.93581019       0.01108775       0.10789569      -0.07204603      -1.03110727       1.02458163       1.92271147
I       14.23141599       5.08311213      16.30808536       0.01200356       0.23707288      -0.12823972       1.22617980       0.77221060       0.53001952
I        1.63589286       6.76637681       1.85781385      -0.25003684       0.12578826       0.05537898       1.10467858       2.06875181       1.01140498
I        1.65950255      10.17214194      18.66875950      -0.13179379       0.16951771       0.15117260       0.48058524       0.21532375       0.76456080
I       10.60461401      12.00619747       1.72247487      -0.14532516      -0.08280314       0.39881271      -0.21064241      -0.32784266       1.69132493
I       10.40205547       4.87644837      18.59743817       0.04272941       0.10129230      -0.04458377       0.91528652      -0.81945750      -0.90190070
I       17.44058686       3.32396561      18.46849894      -0.08504573       0.18668421       0.20313863       0.67460093      -1.12445317      -1.10945140
I        3.54114716      13.30944102       1.97486465       0.09581205       0.05950791      -0.32163114      -1.46749969      -1.33744839       1.34215960
I       12.59599775       8.86016074      18.41844781       0.05948971      -0.22816717       0.01950862       0.06329531       2.05654754       1.19901017
I        8.41981552       8.16492911       1.81592813       0.05000428      -0.09529598      -0.03802213      -1.69755415      -1.48046772       0.93567606
I        5.37990548       6.31014679      18.52907514      -0.04813058       0.06145774       0.10806238      -2.71904593       2.42142158      -0.69558395
I       15.62609902      10.50657881       1.61500164      -0.13031945      -0.13526923       0.04741897       1.34868130      -1.75130777      -1.56825062
I        6.81069587      11.69900479      18.68337977       0.03688748      -0.08255452      -0.01769985       0.59177573      -0.71667370       0.29524705
I       14.25038829       5.21682713       1.77968986      -0.19708578       0.14511063      -0.04608726       1.04456923       1.70122084       1.33172106
Cs       7.51640334      14.60007871       6.54417192      -0.06912037      -0.04483366      -0.00680611      -0.30631167      -0.88570000       4.72382280
Cs      13.56278995       2.26876233       4.16647406      -0.08905274      -0.07548623       0.00024993      -0.35540285      -1.49067351      -0.04519929
Cs       4.49477113      20.00804409       6.53292891       0.22399580      -0.08243111       0.18287873      -1.35307792       0.06131312      -0.62173298
Cs      16.41145012      18.11640085       4.00478190       0.07131317      -0.17575864       0.16661285      -0.29342196      -2.23573694      -1.06965635
Cs       7.33472369      14.60816052      11.40218949       0.09906555      -0.05036474      -0.01161116      -0.64870525      -1.97992209      -2.30386274
Cs      13.39139672       2.32411256       9.08810975       0.14636454      -0.08337566      -0.09795213      -0.14125721      -1.05717668      -1.30439678
Cs       4.90052915      19.83080711      11.49563609      -0.07469963       0.02033456      -0.20751404      -1.17304070       1.07892252      -1.52695361
Cs      16.48049946      17.79517275       9.02090560       0.09800026       0.10328417      -0.11170730       0.20332890      -0.76253495      -0.53150708
Pb       2.72843133      15.37602909       4.25582984      -0.25362383      -0.16559333       0.21795147       1.34150967       5.41510506       2.74207539
Pb      18.11283937       1.46049195       6.33931100       0.47594817      -0.25395771       0.40608831      -1.05063748       0.26957449      -0.14082928
Pb       9.43940878      20.55316207       4.28199261       0.15738630       0.07347058      -0.01078069      -0.07060219       3.60266372      -0.74024245
Pb      11.59299722      17.09750218       6.38870334      -0.14825864       0.13423604       0.04250663       0.55567828       1.96174174      -0.28340389
Pb       2.65742760      15.42514285       9.13967697       0.20338727      -0.11660283      -0.25587809       3.62525871       1.39035171      -0.53557280
Pb      18.35155063       1.31420571      11.32484052       0.06077052       0.04004135      -0.18793510      -0.02859215      -0.74058368      -1.51834834
Pb       9.66892584      20.74092674       9.08158949      -0.39187535      -0.04399149      -0.08374347      -1.06349758      -1.62956473       0.97553012
Pb      11.69145053      17.44344497      11.09839609       0.07128534      -0.41754114       0.27541105      -2.55024786      -2.59100107       1.67262870
I        1.83222031      17.40071889       6.60834016      -0.27997738      -0.13736292       0.18022641      -0.59455349       0.30249684      -0.38140448
I        1.78127343      20.74668456       4.18193691      -0.14162111      -0.12182049      -0.16379245       0.15622396      -1.43574464       4.15022848
I       10.51974896       1.40374435       6.66311639      -0.00942546       0.14265644      -0.21511837       0.96315295       0.92544730      -0.94177383
I       10.45335063      15.40343034       3.98118911       0.10320744       0.12203713      -0.03562114      -1.64606642       1.79026506      -1.20079912
I       17.41677698      13.88730375       4.19381832      -0.10606259       0.16531536      -0.27776531       1.73083029      -2.39292967       0.07944099
I        3.35405740       2.77160232       6.73288366       0.16320356       0.21059756      -0.07545107       1.08621653      -0.58835959       3.44943709
I       12.58653278      19.16306180       4.00496615      -0.02574685       0.08732119       0.15331569       0.44325242      -1.00121141       1.38555389
I        8.36213337      18.70259019       6.79499967       0.39609711      -0.06118901      -0.33311938       0.71273081      -0.58708271      -1.41949725
I        5.30050312      16.80339537       4.14904300       0.43744005       0.18721725       0.08354510       0.88350415      -0.16181539       1.65266533
I       15.81508834      20.83582361       6.52157546      -0.43827803      -0.02643998       0.05082666       1.23405856       0.98239923       0.03823820
I        6.56266321       1.05262635       4.28703518       0.01108775       0.10789569      -0.07204603      -1.03110727       1.02458163       1.92271147
I       14.28904291      15.57840774       6.64400345       0.01200356       0.23707288      -0.12823972       1.22617980       0.77221060       0.53001952
I        1.80406192      17.28063636      11.50658886      -0.25003684       0.12578826       0.05537898       1.10467858       2.06875181       1.01140498
I        1.71712947      20.66743755       9.00467759      -0.13179379       0.16951771       0.15117260       0.48058524       0.21532375       0.76456080
I       10.54698709       1.51090186      11.38655678      -0.14532516      -0.08280314       0.39881271      -0.21064241      -0.32784266       1.69132493
I       10.45968239      15.37174398       8.93335626       0.04272941       0.10129230      -0.04458377       0.91528652      -0.81945750      -0.90190070
I       17.49821378      13.81926122       8.80441703      -0.08504573       0.18668421       0.20313863       0.67460093      -1.12445317      -1.10945140
I        3.48352024       2.81414541      11.63894656       0.09581205       0.05950791      -0.32163114      -1.46749969      -1.33744839       1.34215960
I       12.65362467      19.35545635       8.75436590       0.05948971      -0.22816717       0.01950862       0.06329531       2.05654754       1.19901017
I        8.58798458      18.67918866      11.46470314       0.05000428      -0.09529598      -0.03802213      -1.69755415      -1.48046772       0.93567606
I        5.43753240      16.80544240       8.86499323      -0.04813058       0.06145774       0.10806238      -2.71904593       2.42142158      -0.69558395
I       15.56847210       0.01128320      11.27908355      -0.13031945      -0.13526923       0.04741897       1.34868130      -1.75130777      -1.56825062
I        6.64252681       1.18474524       9.03460476       0.03688748      -0.08255452      -0.01769985       0.59177573      -0.71667370       0.29524705
I       14.41855735      15.73108668      11.42846487      -0.19708578       0.14511063      -0.04608726       1.04456923       1.70122084       1.33172106
Cs       7.57167441      14.60956068      16.20060038      -0.06912037      -0.04483366      -0.00680611      -0.30631167      -0.88570000       4.72382280
Cs      13.61806101       2.27824430      13.82290252      -0.08905274      -0.07548623       0.00024993      -0.35540285      -1.49067351      -0.04519929
Cs       4.55004220      20.01752606      16.18935737       0.22399580      -0.08243111       0.18287873      -1.35307792       0.06131312      -0.62173298
Cs      16.46672119      18.12588282      13.66121036       0.07131317      -0.17575864       0.16661285      -0.29342196      -2.23573694      -1.06965635
Cs       7.27945263      14.59867855       1.74576103       0.09906555      -0.05036474      -0.01161116      -0.64870525      -1.97992209      -2.30386274
Cs      13.44666778       2.33359453      18.74453821       0.14636454      -0.08337566      -0.09795213      -0.14125721      -1.05717668      -1.30439678
Cs       4.84525809      19.82132514       1.83920763      -0.07469963       0.02033456      -0.20751404      -1.17304070       1.07892252      -1.52695361
Cs      16.53577053      17.80465472      18.67733406       0.09800026       0.10328417      -0.11170730       0.20332890      -0.76253495      -0.53150708
Pb       2.78370240      15.38551106      13.91225830      -0.25362383      -0.16559333       0.21795147       1.34150967       5.41510506       2.74207539
Pb      18.16811043       1.46997392      15.99573946       0.47594817      -0.25395771       0.40608831      -1.05063748       0.26957449      -0.14082928
Pb       9.49467985      20.56264404      13.93842107       0.15738630       0.07347058      -0.01078069      -0.07060219       3.60266372      -0.74024245
Pb      11.64826829      17.10698415      16.04513180      -0.14825864       0.13423604       0.04250663       0.55567828       1.96174174      -0.28340389
Pb       2.71269867      15.43462482      18.79610543       0.20338727      -0.11660283      -0.25587809       3.62525871       1.39035171      -0.53557280
Pb      18.29627956       1.30472374       1.66841206       0.06077052       0.04004135      -0.18793510      -0.02859215      -0.74058368      -1.51834834
Pb       9.72419691      20.75040871      18.73801795      -0.39187535      -0.04399149      -0.08374347      -1.06349758      -1.62956473       0.97553012
Pb      11.63617947      17.43396300       1.44196763       0.07128534      -0.41754114       0.27541105      -2.55024786      -2.59100107       1.67262870
I        1.88749138      17.41020086      16.26476862      -0.27997738      -0.13736292       0.18022641      -0.59455349       0.30249684      -0.38140448
I        1.83654450      20.75616653      13.83836537      -0.14162111      -0.12182049      -0.16379245       0.15622396      -1.43574464       4.15022848
I       10.57502002       1.41322632      16.31954485      -0.00942546       0.14265644      -0.21511837       0.96315295       0.92544730      -0.94177383
I       10.50862170      15.41291231      13.63761757       0.10320744       0.12203713      -0.03562114      -1.64606642       1.79026506      -1.20079912
I       17.47204805      13.89678572      13.85024678      -0.10606259       0.16531536      -0.27776531       1.73083029      -2.39292967       0.07944099
I        3.40932846       2.78108429      16.38931212       0.16320356       0.21059756      -0.07545107       1.08621653      -0.58835959       3.44943709
I       12.64180385      19.17254377      13.66139461      -0.02574685       0.08732119       0.15331569       0.44325242      -1.00121141       1.38555389
I        8.41740444      18.71207216      16.45142813       0.39609711      -0.06118901      -0.33311938       0.71273081      -0.58708271      -1.41949725
I        5.35577419      16.81287734      13.80547146       0.43744005       0.18721725       0.08354510       0.88350415      -0.16181539       1.65266533
I       15.87035941      20.84530558      16.17800392      -0.43827803      -0.02643998       0.05082666       1.23405856       0.98239923       0.03823820
I        6.61793427       1.06210832      13.94346364       0.01108775       0.10789569      -0.07204603      -1.03110727       1.02458163       1.92271147
I       14.34431398      15.58788971      16.30043191       0.01200356       0.23707288      -0.12823972       1.22617980       0.77221060       0.53001952
I        1.74879086      17.27115439       1.85016040      -0.25003684       0.12578826       0.05537898       1.10467858       2.06875181       1.01140498
I        1.77240054      20.67691952      18.66110605      -0.13179379       0.16951771       0.15117260       0.48058524       0.21532375       0.76456080
I       10.49171602       1.50141989       1.73012832      -0.14532516      -0.08280314       0.39881271      -0.21064241      -0.32784266       1.69132493
I       10.51495346      15.38122595      18.58978472       0.04272941       0.10129230      -0.04458377       0.91528652      -0.81945750      -0.90190070
I       17.55348485      13.82874319      18.46084549      -0.08504573       0.18668421       0.20313863       0.67460093      -1.12445317      -1.10945140
I        3.42824917       2.80466344       1.98251810       0.09581205       0.05950791      -0.32163114      -1.46749969      -1.33744839       1.34215960
I       12.70889574      19.36493832      18.41079436       0.05948971      -0.22816717       0.01950862       0.06329531       2.05654754       1.19901017
I        8.53271352      18.66970669       1.80827468       0.05000428      -0.09529598      -0.03802213      -1.69755415      -1.48046772       0.93567606
I        5.49280347      16.81492437      18.52142169      -0.04813058       0.06145774       0.10806238      -2.71904593       2.42142158      -0.69558395
I       15.51320103       0.00180123       1.62265509      -0.13031945      -0.13526923       0.04741897       1.34868130      -1.75130777      -1.56825062
I        6.69779787       1.19422721      18.69103322       0.03688748      -0.08255452      -0.01769985       0.59177573      -0.71667370       0.29524705
I       14.36328629      15.72160471       1.77203641      -0.19708578       0.14511063      -0.04608726       1.04456923       1.70122084       1.33172106
Cs      25.29747556       3.90610190       6.43073980      -0.06912037      -0.04483366      -0.00680611      -0.30631167      -0.88570000       4.72382280
Cs      31.56965815      12.58434068       4.03773504      -0.08905274      -0.07548623       0.00024993      -0.35540285      -1.49067351      -0.04519929
Cs      22.27584335       9.31406728       6.41949679       0.22399580      -0.08243111       0.18287873      -1.35307792       0.06131312      -0.62173298
Cs      34.19252234       7.42242404       3.89134978       0.07131317      -0.17575864       0.16661285      -0.29342196      -2.23573694      -1.06965635
Cs      25.11579591       3.91418371      11.28875737       0.09906555      -0.05036474      -0.01161116      -0.64870525      -1.97992209      -2.30386274
Cs      31.39826492      12.63969091       8.95937073       0.14636454      -0.08337566      -0.09795213      -0.14125721      -1.05717668      -1.30439678
Cs      22.68160137       9.13683030      11.38220397      -0.07469963       0.02033456      -0.20751404      -1.17304070       1.07892252      -1.52695361
Cs      34.26157168       7.10119594       8.90747348       0.09800026       0.10328417      -0.11170730       0.20332890      -0.76253495      -0.53150708
Pb      20.50950355       4.68205228       4.14239772      -0.25362383      -0.16559333       0.21795147       1.34150967       5.41510506       2.74207539
Pb       0.33176715      12.15446876       6.45274312       0.47594817      -0.25395771       0.40608831      -1.05063748       0.26957449      -0.14082928
Pb      27.22048100       9.85918526       4.16856049       0.15738630       0.07347058      -0.01078069      -0.07060219       3.60266372      -0.74024245
Pb      29.37406944       6.40352537       6.27527122      -0.14825864       0.13423604       0.04250663       0.55567828       1.96174174      -0.28340389
Pb      20.43849982       4.73116604       9.02624485       0.20338727      -0.11660283      -0.25587809       3.62525871       1.39035171      -0.53557280
Pb       0.57047841      12.00818252      11.43827264       0.06077052       0.04004135      -0.18793510      -0.02859215      -0.74058368      -1.51834834
Pb      27.44999806      10.04694993       8.96815737      -0.39187535      -0.04399149      -0.08374347      -1.06349758      -1.62956473       0.97553012
Pb      29.47252275       6.74946816      10.98496397       0.07128534      -0.41754114       0.27541105      -2.55024786      -2.59100107       1.67262870
I       19.61329253       6.70674208       6.49490804      -0.27997738      -0.13736292       0.18022641      -0.59455349       0.30249684      -0.38140448
I       19.56234565      10.05270775       4.06850479      -0.14162111      -0.12182049      -0.16379245       0.15622396      -1.43574464       4.15022848
I       28.52661716      11.71932270       6.53437737      -0.00942546       0.14265644      -0.21511837       0.96315295       0.92544730      -0.94177383
I       28.23442285       4.70945353       3.86775699       0.10320744       0.12203713      -0.03562114      -1.64606642       1.79026506      -1.20079912
I       35.19784920       3.19332694       4.08038620      -0.10606259       0.16531536      -0.27776531       1.73083029      -2.39292967       0.07944099
I       21.36092560      13.08718067       6.60414464       0.16320356       0.21059756      -0.07545107       1.08621653      -0.58835959       3.44943709
I       30.36760500       8.46908499       3.89153403      -0.02574685       0.08732119       0.15331569       0.44325242      -1.00121141       1.38555389
I       26.14320559       8.00861338       6.68156755       0.39609711      -0.06118901      -0.33311938       0.71273081      -0.58708271      -1.41949725
I       23.08157534       6.10941856       4.03561088       0.43744005       0.18721725       0.08354510       0.88350415      -0.16181539       1.65266533
I       33.59616056      10.14184680       6.40814334      -0.43827803      -0.02643998       0.05082666       1.23405856       0.98239923       0.03823820
I       24.56953141      11.36820470       4.15829616       0.01108775       0.10789569      -0.07204603      -1.03110727       1.02458163       1.92271147
I       32.07011513       4.88443093       6.53057133       0.01200356       0.23707288      -0.12823972       1.22617980       0.77221060       0.53001952
I       19.58513414       6.58665955      11.39315674      -0.25003684       0.12578826       0.05537898       1.10467858       2.06875181       1.01140498
I       19.49820169       9.97346074       8.89124547      -0.13179379       0.16951771       0.15117260       0.48058524       0.21532375       0.76456080