320
Lattice="25.121854697261806 -0.05977452525107978 -0.12957468506993428 0.07192418218408468 24.82535238426277 -0.21579304325525844 0.12447059888337542 -0.778188195725328 24.81728374174729" Properties=species:S:1:pos:R:3:forces:R:3:momenta:R:3 pbc="T T T"
Cs       9.55257536      15.38301421       6.47071467      -0.06146508       0.10968191      -0.14365626       0.32545674       0.66953682       3.11212496
Cs       3.49668625      10.32400041       5.55191825      -0.06778131      -0.07074127      -0.00468523       0.10223935      -1.01900553      -0.44316937
Cs       3.08829596      10.44437612      12.04772582       0.09539628      -0.13883987       0.14881985      -2.02567632       0.07334242      -0.96268214
Cs       9.59843457      15.70022954      12.78704885      -0.00128465      -0.08198196       0.15453867      -0.54311444      -1.73670610      -0.68777347
Cs       9.52576372       9.36906256      12.71113721       0.14124611      -0.06312011      -0.06020044      -0.22075426      -1.68314364      -2.51026098
Cs       3.23570906      16.26247601      11.96939559       0.02132358      -0.05617310      -0.04889670      -0.66947835      -0.18730323      -1.08429500
Cs       3.24141059      16.81359890       5.91509572      -0.01942024       0.02811630      -0.04927859      -1.58972368       1.83957259      -0.68148038
Cs       9.46011136       9.39511355       7.17113488       0.02168065       0.15282774      -0.10920818      -0.34423113      -0.26212594      -0.62685351
Pb       0.21668694       6.47009002       9.31376005      -0.11876202       0.01739960       0.08756942       1.46609504       4.25026824       2.51423044
Pb       6.22250388      12.92704724       9.10611308       0.27614822       0.05394576       0.35504884      -2.31049853       0.56936725       1.13407705
Pb      25.14985517      12.67844896       9.22293190      -0.09651586       0.11122820       0.00966941      -0.71659464       3.01722679      -1.68331588
Pb       6.43621498       6.70804091       9.19137185      -0.29800477       0.02932866       0.15267080       0.62143285       2.74139709       0.53339912
Pb      25.06845394       7.05826577       3.13738473       0.25717279      -0.34345223      -0.07160743       3.34879697      -0.46819571       0.89274893
Pb       6.52950458      13.17296846       2.97685164       0.09593598       0.21436008       0.04521727       1.57698119      -1.09888756      -0.44470413
Pb       0.34434370      13.21842092       3.32956437      -0.27994925       0.18673746      -0.19426683      -0.72739779      -0.75018623       0.65043360
Pb       6.32383913       7.10871999       2.92935031      -0.01511471      -0.49627183       0.10721399      -2.92789301      -2.89700494       0.98930568
I       25.06909875       9.58578771       9.79797092      -0.27185002      -0.03678997       0.20600299      -0.23209546      -1.11400350      -0.10454622
I        5.95505249      15.97109408       8.38613672      -0.05785175       0.24087273       0.14935966       1.14107712      -0.79960893       3.79686396
I       13.24900581      15.75801650       8.63638158       0.00999049       0.18013146      -0.11086161       0.05907095       1.22336593       0.05690453
I        6.80965374       9.89037532       9.99318965      -0.02048346      -0.29384936      -0.02293379      -2.52776785       0.53444906       0.00873972
I        9.49851836      13.51328249       9.77695931      -0.02307093      -0.20973988      -0.07129087       1.75172090      -2.73038448       1.06677906
I        3.19858470      19.47670011       9.78563597       0.19178067       0.00008674      -0.00913862       0.89773771      -1.92377839       2.06498282
I        3.21762811      12.19212754       8.80012805      -0.05850699       0.11980214      -0.05900395       0.30072186       0.51019356      -0.17616697
I        9.38690669       6.14322506       9.07694950       0.37035212      -0.09310649      -0.09797690       0.49615090      -0.47744368      -0.19761223
I       12.11913569      16.26926919       3.66999124       0.04026556       0.09029113       0.06451244      -0.34756916       0.35927675       1.50171205
I        5.92677907      10.02210622       2.30555382      -0.10655369       0.13296297      -0.10033217       2.53356752       1.34687890      -1.00450168
I        0.70778333       9.71321327      15.14873369       0.07774068      -0.02242271      -0.23376641      -1.16274591       0.25259039       1.44301166
I        6.69184043      15.84573632      16.14921056       0.23003530       0.13984229      -0.03491758       1.69895257       1.11030242       1.35720612
I        3.53159545      13.29833007      16.11265493      -0.34426854      -0.03799226       0.00043014       1.40950584       0.50931870       2.16608952
I        9.58231801       7.28123083      16.10066594      -0.04996306      -0.03098555      -0.09642019       0.80523800      -0.77941747       0.21468808
I        9.64379310      12.83507706       2.60778117       0.14902523       0.01407420      -0.00954070       0.94924927       0.01016686      -1.80410887
I        3.26291250      18.75552874       2.64204133      -0.11442622       0.15599521       0.03364921       0.08856739      -1.12680944       0.62545351
I       24.91455692      18.28119114      12.19571371      -0.02998733       0.13002992       0.21130963       1.49325008      -1.75094422      -0.53661987
I        5.83868086      13.47106083      12.47024369       0.04650781       0.01324439      -0.31412808      -1.07112800      -0.83749195       0.66688261
I       13.34087125       7.56109822       6.27411999      -0.07970598      -0.03975900      -0.12351721      -1.39667667       2.83124575       0.65322081
I        7.01079996      12.45500269       6.19483138       0.04782130      -0.21227669      -0.06426807      -1.37292865      -0.94258077       1.15134858
I       24.62548767      12.13032512       6.04438670       0.03567283       0.00845970       0.28500945      -1.34389723       2.02336920       1.09934825
I        6.05521408      19.89503733       5.96500246      -0.04593265       0.05864008       0.36574145       0.62341696      -0.14720261      -1.08741287
I       13.04641856      13.40435743      12.41819117       0.10860650      -0.00270680      -0.10278625       1.11556916      -0.89559122      -1.05978859
I        6.95043377       5.94328084      12.36167022      -0.05580362       0.04215042      -0.24408115       0.70950648       0.69859737       0.44883080
Cs       9.61481066      14.99392011      18.87935654      -0.06146508       0.10968191      -0.14365626       0.32545674       0.66953682       3.11212496
Cs       3.55892155       9.93490631      17.96056012      -0.06778131      -0.07074127      -0.00468523       0.10223935      -1.01900553      -0.44316937
Cs       3.15053126      10.05528202      24.45636769       0.09539628      -0.13883987       0.14881985      -2.02567632       0.07334242      -0.96268214
Cs       9.53619927      16.08932364       0.37840698      -0.00128465      -0.08198196       0.15453867      -0.54311444      -1.73670610      -0.68777347
Cs       9.46352842       9.75815666       0.30249534       0.14124611      -0.06312011      -0.06020044      -0.22075426      -1.68314364      -2.51026098
Cs       3.29794436      15.87338191      24.37803746       0.02132358      -0.05617310      -0.04889670      -0.66947835      -0.18730323      -1.08429500
Cs       3.30364589      16.42450480      18.32373759      -0.01942024       0.02811630      -0.04927859      -1.58972368       1.83957259      -0.68148038
Cs       9.52234666       9.00601945      19.57977675       0.02168065       0.15282774      -0.10920818      -0.34423113      -0.26212594      -0.62685351
Pb       0.27892224       6.08099592      21.72240192      -0.11876202       0.01739960       0.08756942       1.46609504       4.25026824       2.51423044
Pb       6.28473918      12.53795314      21.51475495       0.27614822       0.05394576       0.35504884      -2.31049853       0.56936725       1.13407705
Pb      25.21209047      12.28935487      21.63157378      -0.09651586       0.11122820       0.00966941      -0.71659464       3.01722679      -1.68331588
Pb       6.49845028       6.31894681      21.60001372      -0.29800477       0.02932866       0.15267080       0.62143285       2.74139709       0.53339912
Pb      25.13068924       6.66917168      15.54602661       0.25717279      -0.34345223      -0.07160743       3.34879697      -0.46819571       0.89274893
Pb       6.59173988      12.78387436      15.38549351       0.09593598       0.21436008       0.04521727       1.57698119      -1.09888756      -0.44470413
Pb       0.40657900      12.82932682      15.73820624      -0.27994925       0.18673746      -0.19426683      -0.72739779      -0.75018623       0.65043360
Pb       6.38607443       6.71962589      15.33799218      -0.01511471      -0.49627183       0.10721399      -2.92789301      -2.89700494       0.98930568
I       25.13133405       9.19669362      22.20661280      -0.27185002      -0.03678997       0.20600299      -0.23209546      -1.11400350      -0.10454622
I        6.01728779      15.58199998      20.79477859      -0.05785175       0.24087273       0.14935966       1.14107712      -0.79960893       3.79686396
I       13.31124111      15.36892240      21.04502345       0.00999049       0.18013146      -0.11086161       0.05907095       1.22336593       0.05690453
I        6.87188904       9.50128122      22.40183152      -0.02048346      -0.29384936      -0.02293379      -2.52776785       0.53444906       0.00873972
I        9.56075366      13.12418839      22.18560118      -0.02307093      -0.20973988      -0.07129087       1.75172090      -2.73038448       1.06677906
I        3.26082000      19.08760601      22.19427784       0.19178067       0.00008674      -0.00913862       0.89773771      -1.92377839       2.06498282
I        3.27986341      11.80303344      21.20876992      -0.05850699       0.11980214      -0.05900395       0.30072186       0.51019356      -0.17616697
I        9.44914199       5.75413096      21.48559137       0.37035212      -0.09310649      -0.09797690       0.49615090      -0.47744368      -0.19761223
I       12.18137099      15.88017509      16.07863311       0.04026556       0.09029113       0.06451244      -0.34756916       0.35927675       1.50171205
I        5.98901437       9.63301212      14.71419569      -0.10655369       0.13296297      -0.10033217       2.53356752       1.34687890      -1.00450168
I        0.64554803      10.10230737       2.74009182       0.07774068      -0.02242271      -0.23376641      -1.16274591       0.25259039       1.44301166
I        6.62960513      16.23483042       3.74056869       0.23003530       0.13984229      -0.03491758       1.69895257       1.11030242       1.35720612
I        3.46936015      13.68742417       3.70401306      -0.34426854      -0.03799226       0.00043014       1.40950584       0.50931870       2.16608952
I        9.52008271       7.67032493       3.69202407      -0.04996306      -0.03098555      -0.09642019       0.80523800      -0.77941747       0.21468808
I        9.70602840      12.44598296      15.01642304       0.14902523       0.01407420      -0.00954070       0.94924927       0.01016686      -1.80410887
I        3.32514780      18.36643464      15.05068320      -0.11442622       0.15599521       0.03364921       0.08856739      -1.12680944       0.62545351
I       24.85232162      18.67028524      -0.21292816      -0.02998733       0.13002992       0.21130963       1.49325008      -1.75094422      -0.53661987
I        5.77644556      13.86015493       0.06160182       0.04650781       0.01324439      -0.31412808      -1.07112800      -0.83749195       0.66688261
I       13.40310655       7.17200412      18.68276186      -0.07970598      -0.03975900      -0.12351721      -1.39667667       2.83124575       0.65322081
I        7.07303526      12.06590859      18.60347325       0.04782130      -0.21227669      -0.06426807      -1.37292865      -0.94258077       1.15134858
I       24.68772297      11.74123103      18.45302858       0.03567283       0.00845970       0.28500945      -1.34389723       2.02336920       1.09934825
I        6.11744938      19.50594323      18.37364433      -0.04593265       0.05864008       0.36574145       0.62341696      -0.14720261      -1.08741287
I       12.98418326      13.79345153       0.00954930       0.10860650      -0.00270680      -0.10278625       1.11556916      -0.89559122      -1.05978859
I        6.88819847       6.33237494      -0.04697165      -0.05580362       0.04215042      -0.24408115       0.70950648       0.69859737       0.44883080
Cs       9.51661327       2.97033802       6.57861119      -0.06146508       0.10968191      -0.14365626       0.32545674       0.66953682       3.11212496
Cs       3.53264834      22.73667660       5.44402173      -0.06778131      -0.07074127      -0.00468523       0.10223935      -1.01900553      -0.44316937
Cs       3.12425805      22.85705231      11.93982930       0.09539628      -0.13883987       0.14881985      -2.02567632       0.07334242      -0.96268214
Cs       9.56247248       3.28755335      12.89494537      -0.00128465      -0.08198196       0.15453867      -0.54311444      -1.73670610      -0.68777347
Cs       9.56172581      21.78173875      12.60324069       0.14124611      -0.06312011      -0.06020044      -0.22075426      -1.68314364      -2.51026098
Cs       3.19974697       3.84979982      12.07729211       0.02132358      -0.05617310      -0.04889670      -0.66947835      -0.18730323      -1.08429500
Cs       3.20544850       4.40092271       6.02299224      -0.01942024       0.02811630      -0.04927859      -1.58972368       1.83957259      -0.68148038
Cs       9.49607345      21.80778974       7.06323836       0.02168065       0.15282774      -0.10920818      -0.34423113      -0.26212594      -0.62685351
Pb       0.25264903      18.88276621       9.20586353      -0.11876202       0.01739960       0.08756942       1.46609504       4.25026824       2.51423044
Pb       6.18654179       0.51437105       9.21400960       0.27614822       0.05394576       0.35504884      -2.31049853       0.56936725       1.13407705
Pb      25.11389308       0.26577277       9.33082843      -0.09651586       0.11122820       0.00966941      -0.71659464       3.01722679      -1.68331588
Pb       6.47217707      19.12071710       9.08347533      -0.29800477       0.02932866       0.15267080       0.62143285       2.74139709       0.53339912
Pb      25.10441603      19.47094197       3.02948821       0.25717279      -0.34345223      -0.07160743       3.34879697      -0.46819571       0.89274893
Pb       6.49354249       0.76029227       3.08474816       0.09593598       0.21436008       0.04521727       1.57698119      -1.09888756      -0.44470413
Pb       0.30838161       0.80574473       3.43746089      -0.27994925       0.18673746      -0.19426683      -0.72739779      -0.75018623       0.65043360
Pb       6.35980122      19.52139618       2.82145379      -0.01511471      -0.49627183       0.10721399      -2.92789301      -2.89700494       0.98930568
I       25.10506084      21.99846391       9.69007440      -0.27185002      -0.03678997       0.20600299      -0.23209546      -1.11400350      -0.10454622
I        5.91909040       3.55841789       8.49403324      -0.05785175       0.24087273       0.14935966       1.14107712      -0.79960893       3.79686396
I       13.21304372       3.34534031       8.74427810       0.00999049       0.18013146      -0.11086161       0.05907095       1.22336593       0.05690453
I        6.84561583      22.30305151       9.88529313      -0.02048346      -0.29384936      -0.02293379      -2.52776785       0.53444906       0.00873972
I        9.46255627       1.10060630       9.88485583      -0.02307093      -0.20973988      -0.07129087       1.75172090      -2.73038448       1.06677906
I        3.16262261       7.06402392       9.89353249       0.19178067       0.00008674      -0.00913862       0.89773771      -1.92377839       2.06498282
I        3.18166602      -0.22054865       8.90802457      -0.05850699       0.11980214      -0.05900395       0.30072186       0.51019356      -0.17616697
I        9.42286878      18.55590125       8.96905298       0.37035212      -0.09310649      -0.09797690       0.49615090      -0.47744368      -0.19761223
I       12.08317360       3.85659300       3.77788776       0.04026556       0.09029113       0.06451244      -0.34756916       0.35927675       1.50171205
I        5.96274116      22.43478241       2.19765730      -0.10655369       0.13296297      -0.10033217       2.53356752       1.34687890      -1.00450168
I        0.74374542      22.12588946      15.04083717       0.07774068      -0.02242271      -0.23376641      -1.16274591       0.25259039       1.44301166
I        6.65587834       3.43306013      16.25710708       0.23003530       0.13984229      -0.03491758       1.69895257       1.11030242       1.35720612
I        3.49563336       0.88565388      16.22055145      -0.34426854      -0.03799226       0.00043014       1.40950584       0.50931870       2.16608952
I        9.61828010      19.69390702      15.99276942      -0.04996306      -0.03098555      -0.09642019       0.80523800      -0.77941747       0.21468808
I        9.60783101       0.42240087       2.71567769       0.14902523       0.01407420      -0.00954070       0.94924927       0.01016686      -1.80410887
I        3.22695041       6.34285255       2.74993785      -0.11442622       0.15599521       0.03364921       0.08856739      -1.12680944       0.62545351
I       24.87859483       5.86851495      12.30361024      -0.02998733       0.13002992       0.21130963       1.49325008      -1.75094422      -0.53661987
I        5.80271877       1.05838464      12.57814021       0.04650781       0.01324439      -0.31412808      -1.07112800      -0.83749195       0.66688261
I       13.37683334      19.97377441       6.16622347      -0.07970598      -0.03975900      -0.12351721      -1.39667667       2.83124575       0.65322081
I        6.97483787       0.04232650       6.30272790       0.04782130      -0.21227669      -0.06426807      -1.37292865      -0.94258077       1.15134858
I       24.66144976      24.54300132       5.93649018       0.03567283       0.00845970       0.28500945      -1.34389723       2.02336920       1.09934825
I        6.01925199       7.48236114       6.07289898      -0.04593265       0.05864008       0.36574145       0.62341696      -0.14720261      -1.08741287
I       13.01045647       0.99168124      12.52608769       0.10860650      -0.00270680      -0.10278625       1.11556916      -0.89559122      -1.05978859
I        6.98639586      18.35595703      12.25377370      -0.05580362       0.04215042      -0.24408115       0.70950648       0.69859737       0.44883080
Cs       9.57884857       2.58124392      18.98725306      -0.06146508       0.10968191      -0.14365626       0.32545674       0.66953682       3.11212496
Cs       3.59488364      22.34758250      17.85266360      -0.06778131      -0.07074127      -0.00468523       0.10223935      -1.01900553      -0.44316937
Cs       3.18649335      22.46795821      24.34847117       0.09539628      -0.13883987       0.14881985      -2.02567632       0.07334242      -0.96268214
Cs       9.50023718       3.67664745       0.48630350      -0.00128465      -0.08198196       0.15453867      -0.54311444      -1.73670610      -0.68777347
Cs       9.49949051      22.17083285       0.19459882       0.14124611      -0.06312011      -0.06020044      -0.22075426      -1.68314364      -2.51026098
Cs       3.26198227       3.46070572      24.48593398       0.02132358      -0.05617310      -0.04889670      -0.66947835      -0.18730323      -1.08429500
Cs       3.26768380       4.01182861      18.43163411      -0.01942024       0.02811630      -0.04927859      -1.58972368       1.83957259      -0.68148038
Cs       9.55830875      21.41869564      19.47188023       0.02168065       0.15282774      -0.10920818      -0.34423113      -0.26212594      -0.62685351
Pb       0.31488433      18.49367211      21.61450540      -0.11876202       0.01739960       0.08756942       1.46609504       4.25026824       2.51423044
Pb       6.24877709       0.12527695      21.62265147       0.27614822       0.05394576       0.35504884      -2.31049853       0.56936725       1.13407705
Pb      25.17612838      -0.12332133      21.73947030      -0.09651586       0.11122820       0.00966941      -0.71659464       3.01722679      -1.68331588
Pb       6.53441237      18.73162300      21.49211720      -0.29800477       0.02932866       0.15267080       0.62143285       2.74139709       0.53339912
Pb      25.16665133      19.08184787      15.43813008       0.25717279      -0.34345223      -0.07160743       3.34879697      -0.46819571       0.89274893
Pb       6.55577779       0.37119817      15.49339003       0.09593598       0.21436008       0.04521727       1.57698119      -1.09888756      -0.44470413
Pb       0.37061691       0.41665063      15.84610276      -0.27994925       0.18673746      -0.19426683      -0.72739779      -0.75018623       0.65043360
Pb       6.42203652      19.13230208      15.23009566      -0.01511471      -0.49627183       0.10721399      -2.92789301      -2.89700494       0.98930568
I       25.16729614      21.60936981      22.09871627      -0.27185002      -0.03678997       0.20600299      -0.23209546      -1.11400350      -0.10454622
I        5.98132570       3.16932379      20.90267511      -0.05785175       0.24087273       0.14935966       1.14107712      -0.79960893       3.79686396
I       13.27527902       2.95624621      21.15291997       0.00999049       0.18013146      -0.11086161       0.05907095       1.22336593       0.05690453
I        6.90785113      21.91395741      22.29393500      -0.02048346      -0.29384936      -0.02293379      -2.52776785       0.53444906       0.00873972
I        9.52479157       0.71151220      22.29349770      -0.02307093      -0.20973988      -0.07129087       1.75172090      -2.73038448       1.06677906
I        3.22485791       6.67492982      22.30217436       0.19178067       0.00008674      -0.00913862       0.89773771      -1.92377839       2.06498282
I        3.24390132      -0.60964275      21.31666644      -0.05850699       0.11980214      -0.05900395       0.30072186       0.51019356      -0.17616697
I        9.48510408      18.16680715      21.37769485       0.37035212      -0.09310649      -0.09797690       0.49615090      -0.47744368      -0.19761223
I       12.14540890       3.46749890      16.18652963       0.04026556       0.09029113       0.06451244      -0.34756916       0.35927675       1.50171205
I        6.02497646      22.04568831      14.60629917      -0.10655369       0.13296297      -0.10033217       2.53356752       1.34687890      -1.00450168
I        0.68151012      22.51498356       2.63219530       0.07774068      -0.02242271      -0.23376641      -1.16274591       0.25259039       1.44301166
I        6.59364304       3.82215423       3.84846521       0.23003530       0.13984229      -0.03491758       1.69895257       1.11030242       1.35720612
I        3.43339806       1.27474798       3.81190958      -0.34426854      -0.03799226       0.00043014       1.40950584       0.50931870       2.16608952
I        9.55604480      20.08300112       3.58412755      -0.04996306      -0.03098555      -0.09642019       0.80523800      -0.77941747       0.21468808
I        9.67006631       0.03330677      15.12431956       0.14902523       0.01407420      -0.00954070       0.94924927       0.01016686      -1.80410887
I        3.28918571       5.95375845      15.15857972      -0.11442622       0.15599521       0.03364921       0.08856739      -1.12680944       0.62545351
I       24.81635953       6.25760905      -0.10503163      -0.02998733       0.13002992       0.21130963       1.49325008      -1.75094422      -0.53661987
I        5.74048347       1.44747874       0.16949834       0.04650781       0.01324439      -0.31412808      -1.07112800      -0.83749195       0.66688261
I       13.43906864      19.58468031      18.57486534      -0.07970598      -0.03975900      -0.12351721      -1.39667667       2.83124575       0.65322081
I        7.03707317      -0.34676760      18.71136977       0.04782130      -0.21227669      -0.06426807      -1.37292865      -0.94258077       1.15134858
I       24.72368506      24.15390722      18.34513205       0.03567283       0.00845970       0.28500945      -1.34389723       2.02336920       1.09934825
I        6.08148729       7.09326704      18.48154085      -0.04593265       0.05864008       0.36574145       0.62341696      -0.14720261      -1.08741287
I       12.94822117       1.38077534       0.11744582       0.10860650      -0.00270680      -0.10278625       1.11556916      -0.89559122      -1.05978859
I        6.92416056      18.74505113      -0.15486817      -0.05580362       0.04215042      -0.24408115       0.70950648       0.69859737       0.44883080
Cs      22.11350271      15.35312695       6.40592733      -0.06146508       0.10968191      -0.14365626       0.32545674       0.66953682       3.11212496
Cs      16.05761360      10.29411315       5.48713091      -0.06778131      -0.07074127      -0.00468523       0.10223935      -1.01900553      -0.44316937
Cs      15.64922331      10.41448886      11.98293848       0.09539628      -0.13883987       0.14881985      -2.02567632       0.07334242      -0.96268214
Cs      22.15936192      15.67034228      12.72226151      -0.00128465      -0.08198196       0.15453867      -0.54311444      -1.73670610      -0.68777347
Cs      22.08669107       9.33917530      12.64634987       0.14124611      -0.06312011      -0.06020044      -0.22075426      -1.68314364      -2.51026098
Cs      15.79663641      16.23258875      11.90460825       0.02132358      -0.05617310      -0.04889670      -0.66947835      -0.18730323      -1.08429500
Cs      15.80233794      16.78371164       5.85030838      -0.01942024       0.02811630      -0.04927859      -1.58972368       1.83957259      -0.68148038
Cs      22.02103871       9.36522629       7.10634754       0.02168065       0.15282774      -0.10920818      -0.34423113      -0.26212594      -0.62685351
Pb      12.77761429       6.44020276       9.24897271      -0.11876202       0.01739960       0.08756942       1.46609504       4.25026824       2.51423044
Pb      18.78343123      12.89715998       9.04132574       0.27614822       0.05394576       0.35504884      -2.31049853       0.56936725       1.13407705
Pb      12.58892782      12.70833623       9.28771925      -0.09651586       0.11122820       0.00966941      -0.71659464       3.01722679      -1.68331588
Pb      18.99714233       6.67815365       9.12658451      -0.29800477       0.02932866       0.15267080       0.62143285       2.74139709       0.53339912
Pb      12.50752659       7.08815304       3.20217208       0.25717279      -0.34345223      -0.07160743       3.34879697      -0.46819571       0.89274893
Pb      19.09043193      13.14308120       2.91206430       0.09593598       0.21436008       0.04521727       1.57698119      -1.09888756      -0.44470413
Pb      12.90527105      13.18853366       3.26477703      -0.27994925       0.18673746      -0.19426683      -0.72739779      -0.75018623       0.65043360
Pb      18.88476648       7.07883273       2.86456297      -0.01511471      -0.49627183       0.10721399      -2.92789301      -2.89700494       0.98930568
I       12.50817140       9.61567498       9.86275827      -0.27185002      -0.03678997       0.20600299      -0.23209546      -1.11400350      -0.10454622
I       18.51597984      15.94120682       8.32134938      -0.05785175       0.24087273       0.14935966       1.14107712      -0.79960893       3.79686396
I        0.68807846      15.78790376       8.70116892       0.00999049       0.18013146      -0.11086161       0.05907095       1.22336593       0.05690453
I       19.37058109       9.86048806       9.92840231      -0.02048346      -0.29384936      -0.02293379      -2.52776785       0.53444906       0.00873972
I       22.05944571      13.48339523       9.71217197      -0.02307093      -0.20973988      -0.07129087       1.75172090      -2.73038448       1.06677906
I       15.75951205      19.44681285       9.72084863       0.19178067       0.00008674      -0.00913862       0.89773771      -1.92377839       2.06498282
I       15.77855546      12.16224028       8.73534071      -0.05850699       0.11980214      -0.05900395       0.30072186       0.51019356      -0.17616697
I       21.94783404       6.11333780       9.01216216       0.37035212      -0.09310649      -0.09797690       0.49615090      -0.47744368      -0.19761223
I       24.68006304      16.23938193       3.60520390       0.04026556       0.09029113       0.06451244      -0.34756916       0.35927675       1.50171205
I       18.48770642       9.99221896       2.24076648      -0.10655369       0.13296297      -0.10033217       2.53356752       1.34687890      -1.00450168
I       13.26871068       9.68332601      15.08394635       0.07774068      -0.02242271      -0.23376641      -1.16274591       0.25259039       1.44301166
I       19.25276778      15.81584906      16.08442322       0.23003530       0.13984229      -0.03491758       1.69895257       1.11030242       1.35720612
I       16.09252280      13.26844281      16.04786759      -0.34426854      -0.03799226       0.00043014       1.40950584       0.50931870       2.16608952
I       22.14324536       7.25134357      16.03587860      -0.04996306      -0.03098555      -0.09642019       0.80523800      -0.77941747       0.21468808