320
Lattice="31.392636507215773 -0.04481615214523286 0.09492011689125937 0.1392903615087138 28.887165468702893 0.25788863917263216 -0.2799812260619887 -0.14238296324623026 16.953981605175922" Properties=species:S:1:pos:R:3:forces:R:3:momenta:R:3 energy=-981.1727048680053 stress="0.0 0.0 0.0 0.0 0.0 0.0 0.0 0.0 0.0" pbc="T T T"
Cs       1.37088795       3.67903006       3.51187225       0.05270632      -0.00763578      -0.00354444      -0.15567122      -1.26448651      -2.21201918
Cs       5.43171179       6.23253993       7.68541523       0.05149629      -0.03199403       0.00535257       0.88998062      -1.60222521       0.86365784
Cs       1.10178371      10.85837878      16.23105995       0.08096872       0.05393273       0.07308707       1.68595946       0.21665483      -0.55863160
Cs       5.71556210      13.20582154       3.43813502      -0.08886177      -0.00451807       0.04974741      -3.47209096       0.24026074      -0.38893990
Cs       8.91242399       3.43492862       3.59234456       0.13674573      -0.07905250      -0.00553451      -1.54220756       1.17376341       1.16125900
Cs      13.29873184       6.11044878       7.88673172       0.08195419      -0.05104512       0.03971145       1.67587664       1.59528809      -3.12345815
Cs       9.59656765      10.96626132      16.22712472      -0.13221721      -0.14043951      -0.04003542      -0.45738893       0.46261015      -0.81165131
Cs      13.45759036      13.33177513       3.50405099      -0.06001158      -0.05459661       0.02170801      -1.89418298       0.82945173      -2.12498746
Pb       2.82710330      15.60435200       7.83928346       0.20714107      -0.20610811       0.13828825      -2.00894239      -0.52422457      -0.22624716
Pb       6.77792511      15.73399423       7.79106016      -0.35514309      -0.26474404       0.15659213      -0.78503459       1.52665201       1.12344930
Pb       4.31261652       8.54204673       3.33696885      -0.11395552       0.07887539       0.09021762       0.32311144       1.63503884      -2.40656609
Pb       0.21845870       8.59268927       3.43122297      -0.14152663       0.06018829       0.19425787      -0.07260566      -0.31577844       1.37103192
Pb      10.60617158      15.41868647       7.88568132       0.19341093      -0.02721874       0.17080271      -0.03972036      -2.88163463       0.43589976
Pb      14.58981446      15.73049493       7.82422654      -0.21234957      -0.44653268       0.04371217      -2.06696982       0.77218676       3.27490567
Pb      12.11768407       8.22358515       3.48339702       0.08365061       0.22643763       0.10634402       1.19625126      -0.63031098       0.22795017
Pb       8.31042337       8.36606773       3.64079890      -0.35599904       0.12214597      -0.05204020      -3.90613818      -1.61607179      -0.73860162
I        4.89508944       2.45977830       1.61718845      -0.12590732       0.00696332      -0.09580329       1.97880252       3.55173672      -2.47092143
I        2.13766508       7.40032077       1.18304040      -0.01121056      -0.13976573      -0.20273797      -1.83422620       0.68225071      -1.22181088
I        4.81674986       2.79031984       5.61287132       0.02249828      -0.01556452      -0.04893554       0.50512045       2.58194926       2.34358749
I        2.19702472       7.56022034       5.62656778       0.14051390      -0.29053678       0.13949598       1.22708358      -0.46051208       0.66614813
I        6.22626980       5.85057037       3.35592504      -0.03886239       0.23024549      -0.03519539      -0.25519601       2.42013971       0.96744650
I        0.82666824       4.11551178       7.77420912       0.13412181      -0.06517627       0.04402865      -0.85263897      -1.13625836      -1.46104242
I        6.01083244       9.53772559       5.80194132       0.29246556      -0.00253111      -0.04498381       0.19359886       0.75348483       1.94641770
I        0.64030762      14.25217890       5.77293250       0.16420423      -0.00979213       0.11525716      -1.06242409      -0.49187621      -0.30974098
I        6.51288953       9.99470764       1.45851448       0.07789493      -0.12527070       0.04363949       0.46545024      -0.00179028      -0.03858130
I        0.99688471      14.40786143       1.82491887      -0.23835613       0.13544988      -0.12198586      -0.05434283       0.80364173      -0.53422275
I        4.72526480      13.03932896       7.60272115      -0.00888656       0.18847939       0.00593969      -1.02264393      -0.35015444       2.05436579
I        2.37194533      11.06935325       3.32916039      -0.02544930      -0.03022912       0.05795849      -0.61266898      -0.72870650      -3.12714221
I       12.42094958       2.43720292       1.60626906       0.09864223      -0.04080497       0.05585119       2.82942202      -1.94052200      -0.79162909
I       10.17403808       7.50774444       1.08392239      -0.14553900      -0.10774460       0.17762053       1.46507200      -1.02445554      -1.57793832
I       12.73890540       2.63256378       5.49995242      -0.04490275       0.07991554      -0.05872730      -0.58079918      -0.80891341      -0.34407529
I       10.28634166       6.88486918       5.72748000      -0.03557063      -0.06037466      -0.11703630      -1.56169952       1.34728214      -0.22068893
I       14.24350469       5.73594540       3.24484336      -0.18127997      -0.00757392      -0.04743109      -1.66751850       0.66955317      -1.03245766
I        8.61847274       3.80927744       7.78537724      -0.06743549      -0.12560069      -0.05173527       1.54938074       0.58132988       0.71045076
I       14.05663569       9.23982100       5.83758709       0.05134366       0.18147829       0.01099552      -1.13737813       1.41315787       0.11222336
I        8.62561913      14.28435518       5.64459766       0.01548741      -0.04974489      -0.16377373      -1.90292286      -0.79867224       1.44478997
I       14.14708663       9.74858429       1.30427112      -0.11489125       0.05351727       0.01869212      -0.46820516      -1.16570152      -1.85711875
I        8.98608214      14.08944858       1.36708282      -0.12271471       0.20167499       0.10910714      -1.73027719       1.03592211       0.28982397
I       12.59123364      12.98880686       7.70599448      -0.02830585      -0.10473936      -0.05389049      -1.50662671       0.31651613       0.13678023
I       10.23506788      10.90606884       4.07901742       0.15483095      -0.09627870      -0.08509678      -1.07801635       0.48611416      -0.11845409
Cs       1.41289808       3.53639520      12.06914603      -0.12689590       0.00801569      -0.08295898       1.13409633       0.46538876      -0.00038437
Cs       5.12967200       6.17710990      16.16682169       0.02621589       0.00795638       0.02611800      -1.62622468       0.44341785       0.65049053
Cs       1.28179302      10.69655018       7.75454588       0.13965831       0.16179327      -0.05221853       1.58350436      -0.97885303       0.45018438
Cs       5.33596785      13.31975833      12.16592554      -0.11911818      -0.02871644      -0.05418492      -1.03642009       1.42805730       1.46708885
Cs       8.73140475       3.38242163      11.99091184       0.15665343       0.04302103       0.00625927       3.97977492       1.64687541       0.92375533
Cs      13.18439102       6.10574856      16.27310508       0.02320872      -0.04927529      -0.08791901      -0.16648000      -0.89945020      -0.47802709
Cs       9.47570778      10.66577388       7.91351688      -0.04309712       0.02182374       0.01535652      -0.01734693      -1.05883027       3.48423978
Cs      13.38568117      13.11546266      11.94370965      -0.09291629      -0.01731928      -0.00403633      -0.45195207      -0.78599667      -1.34504069
Pb       2.65324134      15.54886523      16.72967836       0.20850408       0.03187951      -0.33338554       0.69532715      -3.01422899      -1.63876846
Pb       6.65588210      15.69928594      16.29823065      -0.27428211      -0.15417039       0.36342655      -1.73231952       1.04425700       2.15685901
Pb       3.77553509       8.54998137      12.10532699       0.50263513       0.04732800      -0.07637810      -0.24469187      -0.66464064      -1.12535112
Pb       0.07083489       8.49093214      11.93955974      -0.64015037      -0.09726812      -0.37534510      -2.89142593       0.89326248      -1.00694995
Pb      10.63893309      15.67871894      16.37898356      -0.17114216       0.04316172      -0.17692319       0.09386474       0.82914119       3.71346725
Pb      14.70258632      15.80257668      16.15937450      -0.09876266       0.06859046      -0.10575676       1.63863202      -2.96785220       0.51720160
Pb      11.69726941       8.41838081      12.10302056      -0.15878408       0.00716878      -0.11398527       0.62902774      -1.09311092      -0.09320817
Pb       7.75935176       8.52391898      11.95325635       0.18773736       0.00590485       0.16570056      -0.52323775       1.56548690      -1.80729673
I        4.94881513       2.47450049       9.78936617       0.01384604       0.13737177       0.39722164      -0.63738496      -0.17272915      -1.02998870
I        2.18901565       7.40000384       9.63759934      -0.06933337       0.03959027       0.04960952       0.23702776      -0.61063169       1.22623118
I        4.49719239       2.74916653      14.14817848      -0.00671174       0.05135455      -0.24338825       1.28369700      -1.13043058       0.07893187
I        1.78721885       6.73536404      13.89478797       0.07378478      -0.03122792       0.30696550      -0.55312331      -0.29561140       0.79711958
I        5.87043770       6.03967183      11.66121280      -0.14220010      -0.17793527       0.09945164      -0.14665773      -2.22665782      -1.20410145
I        0.61004847       3.63350306      16.43414622      -0.09390241       0.12173340      -0.02332866      -0.36332561      -0.45909264      -0.49655041
I        6.04011350       9.71107838      14.33775425      -0.16588995      -0.03736754      -0.04426749      -1.23570991       0.71355736      -1.30384255
I        0.53108335      14.27474854      14.39093916       0.21765381       0.08536573      -0.05767597      -0.59040286       1.28329637      -0.30300556
I        5.86261440       9.94085315       9.94185680      -0.13360361       0.03426715      -0.04539253      -0.25760215       0.70327063       1.16927080
I        0.85710393      14.34569432      10.33091707       0.17371464      -0.09202273       0.03114635      -0.37470430       1.24390645      -0.33237076
I        4.55679340      13.02344665      16.44953995      -0.10415042       0.25020489      -0.04038407       1.05862200      -2.55710829       3.11874361
I        1.93734917      11.09744211      12.52659750       0.02568886      -0.02554818      -0.11240898       1.49669253      -0.42782763       0.93551235
I       12.47555078       2.52614611       9.93361753       0.07415267      -0.00365396       0.00897602       1.14449929       0.05080399       2.16382351
I        9.85183844       7.18832586       9.84210240      -0.01570895      -0.10800466      -0.14818610      -0.18761358       1.72257318       0.28413242
I       12.46764860       2.31204540      14.11537312      -0.05712280       0.15958119      -0.07218994       1.31613854      -0.27507740      -0.77136785
I        9.71564583       7.17080973      14.32963637       0.10356324       0.07309507      -0.31680988      -2.14916593      -0.95216779       0.92371969
I       13.72192018       5.96121793      11.96848906       0.06004713      -0.22740175       0.04382176      -1.10796556      -0.36593490      -1.07884109
I        8.16363913       3.93856281      16.49762650       0.21838484      -0.45024963      -0.03719730      -0.80870440       2.12598071       0.38913329
I       13.65913584       9.85912672      14.18030138       0.04155402       0.10527374       0.25075519       0.27624979       3.12910672       0.82123462
I        8.22073993      14.15884944      14.25530000       0.37792165       0.11401932      -0.05759533      -0.09299517      -0.65689026      -0.18326391
I       13.85697232       9.81966769       9.89866245      -0.27269204       0.01255560      -0.09757565       0.21084419      -0.93763561      -0.34526251
I        8.47855850      14.39998953      10.18243757      -0.03855074       0.00298077      -0.15424735      -0.01911189      -0.16399457      -0.68176216
I       12.62227263      13.23801657      16.36229809       0.20000539       0.00597809      -0.08638315      -0.32465267      -0.28148446      -1.97829472
I        9.83657729      11.04604474      11.82433567       0.09056264       0.07873959       0.09773733       0.51995183      -2.57939106       0.15983474
Cs       1.20654236      18.19249048       3.61311697       0.06821952      -0.12687268       0.11357675      -1.07425545       1.14350922       0.52205948
Cs       5.89640523      20.65270292       7.86429040      -0.15016024       0.10231404       0.09809808       1.92714542      -0.15453163      -1.00486717
Cs       1.11918516      25.27576989      16.62091254       0.08539891       0.03687687      -0.08920766       0.39815652       0.08577646       2.51981391
Cs       5.30928449      28.18147646       3.66449936      -0.05889185      -0.13419363       0.02584468      -1.18294538      -0.19805744       0.83825264
Cs       9.17967589      17.81393177       3.70476362      -0.01845266       0.06724046      -0.04755774      -1.25193912      -1.09645931      -1.19735288
Cs      13.33768686      20.38809229       7.99384601      -0.08233591       0.08385025      -0.00955387      -1.21240312       0.59345866       0.37288488
Cs       9.32154177      24.93708211      16.52776761      -0.01339893      -0.00287244      -0.03290182      -2.69251758       0.30469179       1.49103811
Cs      13.49782494      27.35748534       3.88370877       0.03292187       0.17394447      -0.06962476      -0.61584290      -0.53468949       1.75651873
Pb       2.85654664       1.47809770       7.74623861      -0.23245201      -0.23672505      -0.24011146       1.27206588      -1.39068152       0.00206163
Pb       6.82307538       1.07088146       7.56770467       0.29241182       0.17622587       0.00081111      -0.87344587       2.59184336       0.86723246
Pb       4.15117204      23.12581161       3.85383966       0.23106294       0.30967541      -0.20605271       1.46196423      -0.34534870       0.15804684
Pb       0.03348355      23.04687623       3.88258676       0.14221584       0.03645455      -0.28866490       0.35630945      -4.42957374       1.56805959
Pb      10.77221939       1.36303970       7.55165139      -0.26858131      -0.10726550       0.16343499       0.76595578      -0.19953180       2.33093277
Pb      14.60872572       1.28310348       7.70128942       0.02924707       0.04593438       0.29477414       0.18386901       1.36159852       0.31107298
Pb      12.10275160      22.99750401       3.83503114       0.02344793      -0.20006069      -0.16549086      -0.43621324      -4.29301748       0.96106345
Pb       8.20680529      23.04084693       3.80508415      -0.21448552       0.08663975      -0.18624728       1.07656338       3.23516909       0.89835319
I        4.77184451      16.88797446       1.91338063       0.19250025       0.03598778      -0.05270892       0.97443540      -0.69244546      -0.76265711
I        2.25411698      21.99050867       1.53699978      -0.13056739       0.00631455       0.07199482      -1.79459147      -0.43905237      -0.67286801
I        4.50188225      17.17911191       5.81328795       0.17446960       0.07286743      -0.06703636       1.03005716      -1.17744186      -1.19993631
I        2.18460626      21.85770556       5.88657038      -0.10862028      -0.24671502       0.29975576       0.83321857      -0.18842855      -1.05125007
I        6.22743332      20.58293352       3.65308956      -0.14023498      -0.21039499       0.02839363       2.28855297      -0.82939577       0.00472386
I        0.84844956      18.09715665       7.76272446      -0.03926204       0.37624280       0.11734897       0.25461507      -1.44033550       0.42128875
I        6.29840214      24.30389531       6.09169296      -0.02912754      -0.12594581      -0.08967215       0.40730545      -0.52406961       0.63390616
I        0.71633658       0.25888393       5.44864274       0.10591503       0.06460638       0.16083362       1.61775533       0.17508710      -1.41242900
I        6.28964416      24.74096816       1.82873146      -0.06501224      -0.21322590       0.07338126      -1.76816444      -0.58532899      -1.70565736
I        1.08229326       0.02697245       1.58069674      -0.17523360      -0.06108079      -0.09782532      -2.11956707      -0.07803339       0.54451440
I        4.79818042      27.68742212       7.76060553      -0.10126458      -0.01741997      -0.00543504       1.16884131      -0.07581240      -0.59827691
I        2.07599128      25.60334061       3.92306640       0.04272490      -0.12652665       0.00576209      -2.58381260      -0.34731166       0.56404783
I       12.76815927      17.02943139       1.52858638       0.17095459       0.01499169       0.02503686       0.77455851       2.15909526      -1.66639949
I       10.22297142      21.73431416       1.51108718       0.08970811       0.05956197       0.25666991      -0.40365490      -1.30671773      -0.86020313
I       12.36416463      16.67810736       5.61913023       0.06148314       0.29731266      -0.19787614      -1.51950620      -1.70554739       0.00731358
I       10.16392043      21.52792103       5.87560875       0.08411113       0.04988727       0.09359178       1.16621838      -1.85945134      -0.19997426
I       14.09214292      20.30462213       3.88494572      -0.04973194       0.15361976      -0.02575476      -0.20897388       0.19940045       2.67257826
I        8.73560606      18.16869660       7.76210928       0.06482972       0.09196708       0.01002799      -0.90571773       0.46696347      -0.56543464
I       14.21697374      24.14483362       6.15862643      -0.01648581      -0.04870596      -0.36934751       0.15588299      -0.08552660      -0.91235201
I        8.80859549      -0.16703673       5.29368290      -0.11269939       0.16281154       0.17657837       0.39568492       0.01456313      -1.59228939
I       14.26191328      24.12476353       1.41956643      -0.20970416       0.06221127       0.19975981       0.98332859      -0.67066249      -0.65287853
I        8.56124131      -0.25628989       1.16274845       0.08058904      -0.14490471       0.39191006       1.14719561       0.40120936      -0.51639668
I       12.66851511      27.60773076       7.86852761       0.19388429       0.08448472      -0.00776279       0.54075220       0.55826667       0.31738686
I       10.21145409      25.53418973       3.75958477       0.15317082       0.03168603       0.04353366       0.81845996      -1.56432304       0.09631177
Cs       1.14424227      17.71950472      12.23658118       0.00477235       0.12530754      -0.05699318      -2.41936334      -0.33691223       2.43405083
Cs       4.87556421      20.26660739      16.69854840       0.15886875       0.05402634      -0.03677839       0.87502419      -0.35234491      -0.19152092
Cs       1.75396640      25.37706687       7.90398596      -0.01002547      -0.07864353       0.09830425      -0.02504797       1.71852913      -0.91246623
Cs       5.48444789      27.96584324      12.24456918      -0.13502082      -0.17364607      -0.02339840       0.66485668       3.45134220      -1.67611696
Cs       8.95778671      17.84557398      12.09998336       0.05701284       0.01168792      -0.01562567      -1.22053785      -1.55697424       1.72236784
Cs      13.66375368      20.52011705      16.47801877      -0.22341443       0.08092187       0.00988690       0.11632017       2.29664315      -0.08853837
Cs       9.57003146      25.40272929       8.10662362      -0.05953459      -0.15623958       0.05998746      -0.62090720       2.37037356      -1.50845211
Cs      13.00572769      27.67993032      12.38994867       0.06063635       0.08578011      -0.08412488       0.31328662       2.31768333       0.70993234
Pb       2.62223233       1.09696384      16.22694994       0.04827381       0.20833600       0.15957947       0.47904741      -4.76118737      -2.09925459
Pb       6.49196193       1.17302770      16.19850958      -0.21230286       0.17771477      -0.00960105      -0.99147496       0.12262205      -1.99356427
Pb       3.89987929      22.72816726      12.39779561       0.44071862       0.30040175      -0.38811847      -0.57773237      -0.66719035      -1.80860012
Pb      -0.02172195      22.93258590      12.04461124       0.08500001      -0.08457913       0.13365789       1.82093922       3.48811556       2.71129658
Pb      10.28677892       1.25424624      16.30971909       0.16709642       0.04868325      -0.20938426       0.22201100       2.37249988       1.68840154
Pb      14.29243758       1.00143083      16.44232940       0.16054683       0.13887184      -0.00537453       2.60740906      -0.49537522       0.78349134
Pb      11.83775727      22.84637861      12.37641268       0.02646052      -0.31461170      -0.04013673       2.64359085      -3.09181383      -1.12815255
Pb       7.90997155      22.71293657      12.28323630      -0.04518656       0.08611849       0.09015902       0.30213586      -1.49240962      -1.02092442
I        4.85454604      16.79410674      10.17851890      -0.18258832      -0.02415933      -0.07099304       2.07008226      -0.44065864       1.66861223
I        2.25295416      21.41758157      10.10961665      -0.25101128      -0.06186074      -0.21618006       2.05774722       1.71770386      -1.86426825
I        4.45152775      17.22677622      14.44993152      -0.02000528      -0.18923188       0.07039120      -0.81789412       1.58927104      -0.78248942
I        1.91647524      21.53215928      14.32957802      -0.16267290      -0.14936373       0.31455241       1.79015822      -0.83519684      -0.99328723
I        5.90977677      20.28571542      12.16947066       0.17982069      -0.20487359      -0.08152697      -0.18762091      -1.51875129       1.37336526
I        0.65327083      18.35490052      16.80477332       0.18218915      -0.07438716      -0.07266356      -1.46120042      -0.80517031       0.90302775
I        6.03230452      23.70523341      14.63093664      -0.03340813       0.19733163       0.26761835      -0.29721294       0.23225002       0.99474760
I        0.72176341      -0.17402582      14.08325463      -0.16238718      -0.06031603      -0.12192237       1.79710492      -0.73333939      -0.49048851
I        6.12997193      24.48372174      10.28712061      -0.05032692      -0.22026525       0.11062166      -0.50181467       0.71106082      -0.50523937
I        0.88842175      -0.05107626       9.83161736       0.00648410       0.10382709       0.11610587      -0.17153144      -1.95755837      -1.81714865
I        4.50536657      27.48271160      16.35296428       0.21231416      -0.16213590      -0.10841788       0.58629044       2.21720480      -0.91477282
I        2.17948404      25.35037665      11.85948861      -0.16991355       0.20657541       0.18343942       1.46074303      -0.49811568      -0.12790803
I       12.54985261      16.56028910      10.22344710      -0.09614342       0.09884768      -0.03814178      -1.63715522       0.10578538       3.44193245
I        9.94014052      21.38593743      10.17507001       0.07262675       0.10559577      -0.17079752       0.17787227       1.22552864      -0.60734466
I       12.41874724      17.31707844      14.30077921       0.08519160      -0.11389141      -0.05880336       0.51399253      -1.56883244      -0.02592844
I       10.04435411      21.32863053      14.48457073       0.00671826       0.01411524      -0.07236686       2.31076204      -2.07693347      -0.36338440
I       14.02867263      20.19958701      11.65314206      -0.07420981       0.26478554       0.18855600      -0.20807671      -1.30968216      -0.60861334
I        8.50194343      18.21080012      16.42506508      -0.05367253      -0.06132601       0.07088463       1.58033219       0.41600002      -0.47613824
I       13.99772136      23.98331621      14.56433451       0.03450136      -0.04257205      -0.18858577      -0.10576183      -2.60537821       2.02031738
I        8.37714942       0.07496815      13.92272092       0.07196587      -0.06503698      -0.16657861       0.56796488       0.62852521       0.42474645
I       13.66972686      24.16349562      10.02996907       0.05717533       0.19834399      -0.09028716       1.56765102      -0.36421143      -1.93060502
I        8.80344274      -0.18628493       9.83157603      -0.05042116       0.05316837      -0.12720027      -0.52918667       1.03195355       0.12015861
I       12.31752291      27.52011172      16.32333388      -0.10617674      -0.03253693       0.10089082      -1.25206540       0.60733512      -0.45468168
I        9.99588995      25.34080758      12.63263425      -0.08216055      -0.00117133      -0.06129012       1.12963085      -0.41404497       1.34981883
Cs      17.37611756       3.48848016       3.14820263      -0.00487903       0.05198243       0.15458602      -1.08862248       0.94149054       0.58720114
Cs      21.02476013       6.26051107       7.98894746       0.08017206      -0.06892109      -0.00306075       2.76158007      -0.12289319      -0.29470805
Cs      17.10246312      10.83276229      15.98679741       0.05138894      -0.08845769       0.09581082      -0.11364763      -0.37337390       2.58690821
Cs      20.84291445      13.33156297       3.77146853       0.14361010       0.13200913       0.00360765       2.70387160       0.16724928       0.26043225
Cs      24.86529613       3.49276960       3.68857163      -0.00056775       0.09869963      -0.01863972      -1.62290362      -1.77327060       2.62820831
Cs      28.82438357       6.12781950       7.94714857      -0.06303925       0.04055235       0.00331705      -0.33311811      -0.26730344       0.60309571
Cs      24.95848716      10.81510589      16.47803169      -0.03630826       0.01918096      -0.00706885      -0.23330189       0.82200492       1.11035296
Cs      28.77633717      13.58076781       3.89588529      -0.03438597      -0.05992764      -0.01602973      -0.70234495       0.59662140       0.99401309
Pb      18.63644620      15.70341540       7.79755105      -0.40758404      -0.01386360       0.09895788      -1.27269841      -0.47137800      -2.62571681
Pb      22.38338394      15.62361518       7.98568564       0.38220860      -0.00940663      -0.28122328       0.23999147      -0.83301825      -0.53234595
Pb      19.83488689       8.67085400       3.64313092      -0.03629195      -0.38588120       0.34119257       0.14184936      -1.08885084       3.68992899
Pb      16.02885892       8.33462111       3.41112322       0.04163916      -0.15343795       0.42181389       2.23601682      -3.81993535       0.19965461
Pb      26.39446692      15.57608144       8.18763840      -0.36123533      -0.17062655      -0.40303195      -1.48726198      -0.97374329       0.56014681
Pb      30.38368410      15.50568440       8.32892715      -0.09994780      -0.13494234      -0.59259750       1.27353220      -0.65725851      -0.21460225
Pb      27.55530707       8.50167581       3.63711320       0.13543042       0.02093476      -0.12312761       3.55497944      -0.83272401       1.55864310
Pb      23.63315021       8.66184419       3.56847413      -0.04271744      -0.08200998       0.06128048       3.88541131       2.87784662       0.69093691
I       20.50893426       2.11844840       1.77895112       0.00551516       0.05459359      -0.03367960       0.72224077       0.52634177      -0.00298844
I       18.26965525       7.12927572       1.45838470      -0.23977150      -0.06389191      -0.46208276       0.06920227       0.60485535      -0.98767460
I       20.35608503       2.68725408       5.86145355       0.02481440       0.16758218      -0.32135292       0.80915204       1.72770243       1.52232255
I       17.95465635       7.03506320       5.89083317       0.01160055       0.29575511      -0.51716972       1.69055118      -0.30656146      -0.04806005
I       21.80108759       6.03981100       3.16927099       0.00836007       0.00289787       0.08165534       1.30803673       0.13224687       1.17519894
I       16.65910396       3.89613417       7.76753314      -0.35984406      -0.23550801       0.07696317       0.93598767       2.09160473       3.15778369
I       21.62533193       9.86973897       5.97060478       0.36014941      -0.08232883       0.07629781      -1.21030466      -1.07358056       0.79648402
I       16.54284323      14.57493756       5.58393612       0.06803262      -0.08149242      -0.21406468       0.86940888      -2.01507250       0.13983534
I       21.68947974      10.30994226       1.61726441       0.08821183      -0.05505620      -0.13349893       1.65716069      -0.82949819       1.61517204
I       16.81878343      14.51009961       1.40657209      -0.16878002      -0.07140844       0.15062939       0.67159227      -2.20996876       2.18328633
I       20.27749760      13.06809635       7.85367244       0.12951297       0.03546305      -0.01582449       1.32025990       0.92534772      -2.50529889
I       17.74789491      11.01119757       3.59306147      -0.06410814       0.32465961       0.03731457      -2.53365491      -1.06213037      -2.16922752
I       28.65026887       2.30381092       1.90930088      -0.14637995       0.09161251      -0.06352474       1.07923961      -0.39482476      -1.69117336
I       25.58092446       7.53628112       1.23637706       0.05242317       0.03408514       0.15988345       0.16724982      -0.60505036       0.93842669