320
Lattice="35.78794042575779 -0.37839846603646177 -0.24217113649280456 0.2257959835333163 21.00955516298944 -0.015306901360210465 0.11054213265190213 0.01896394099226511 19.312856914076352" Properties=species:S:1:pos:R:3:forces:R:3:momenta:R:3 pbc="T T T"
Cs       6.85077826       5.29153570       6.08422929      -0.10827267      -0.00645212       0.02917630      -0.31927804       0.37231635       1.51942747
Cs      13.26674788      13.79111618       3.80819013      -0.07520573       0.05454098      -0.17905580      -1.54664856      -0.27411670       0.05323898
Cs       4.10798438      10.64392643       6.26055789       0.00393858       0.03984177      -0.10485268       0.21781857       1.22695123       2.88496136
Cs      15.88641814       8.59491181       3.65420494      -0.07734390       0.02125942      -0.06288805       0.00072686       0.32857441      -0.19786361
Cs       6.76297236       5.31220117      10.89198871       0.07349866       0.04497104       0.15571922      -0.27361908      -1.28351743      -0.00055328
Cs      13.02471147      13.94030777       8.45787262      -0.11453852      -0.11619935      -0.00768512       0.56774171       1.46470871       1.38527528
Cs       4.13542707      10.62042941      11.09080614       0.01853989      -0.02143266       0.00355890      -1.21249918      -1.54780361      -0.55948371
Cs      15.77920190       8.53526105       8.50700331       0.11685252       0.07281992       0.03106003      -0.71841185       0.57849851       1.58039580
Pb       2.11894811       6.09341380       3.76001162       0.31163575       0.33856289       0.20167670      -0.30315730       2.16253021      -2.99309373
Pb      17.87409859      13.03966092       6.10858909       0.21405999       0.23951013       0.00828775      -0.22072341      -0.46569793      -0.21046092
Pb       8.93692789      11.01950228       3.66830223      -0.34836994       0.30153435      -0.15238594       2.33075191       1.58346856       0.87925508
Pb      11.01451142       7.89234976       6.24257223      -0.17096792       0.11445059       0.10549675       0.60899979      -1.70247069       0.06821953
Pb       2.03856998       6.16440650       8.62231583       0.14154191       0.03504233      -0.12741992       1.35572497       0.11536167      -1.10397152
Pb      17.81278834      13.32833819      10.84980034       0.24508758      -0.17562856       0.11474194       1.16330467       0.91076502       0.25436607
Pb       8.88656144      11.41011064       8.34585903       0.23962224      -0.36310822       0.42395664      -1.00424139       2.50339021      -2.24329248
Pb      11.02821345       7.68206386      11.17480297       0.12555403       0.18495647      -0.44522556      -0.56608147      -0.13204801       0.47363353
I        1.03594658       8.14265643       6.30658795       0.01072659      -0.16589063      -0.19833671       0.56783725       0.48784526       0.80224477
I        0.98509314      11.54188097       3.82769406       0.01324271      -0.08299160      -0.22770421       0.40808290       1.12111426       0.95932282
I        9.93772180      13.04472917       5.90130802       0.22235781       0.22010493       0.27515954       2.00646416       0.17407692      -0.56930153
I        9.97940700       5.87588269       3.80553677      -0.06016632       0.04252111      -0.06011986       0.50462225      -1.12930486       0.12904019
I       17.03706711       4.84763998       3.76249881      -0.33766146      -0.20990111       0.07735434       1.00558972       1.14167505       1.27037846
I        3.04779836      14.67759251       6.11725726       0.14875231      -0.15131578       0.23829089       0.61597176       0.70011339      -0.72871003
I       12.07496237       9.83626484       3.73977290      -0.03283244      -0.09735938      -0.04245806      -0.79260653      -0.55340791      -0.34725809
I        7.88493654       9.17123531       6.22730281      -0.00243525       0.07810417      -0.05633076      -1.02074608      -1.16205213      -0.78996877
I        4.84856852       7.81849665       3.81436716      -0.10224035      -0.29942901      -0.03922674       1.78965030      -0.10883196       1.17189743
I       15.20473966      11.65043578       6.08556947      -0.22225853      -0.19014098       0.02997673      -1.57573886       1.95666221       1.31472578
I        6.31796367      12.90579733       3.68072611       0.06798418      -0.28568910       0.08761517       0.30107462      -0.13745397      -0.74530197
I       13.64956320       6.46481703       6.22011487       0.29742956      -0.21811480      -0.16656860       0.40167939      -0.35402881       0.71845365
I        1.09491457       7.94515424      11.13348597      -0.17908181       0.27105116      -0.25321506      -1.97391914       1.27788047       1.73307835
I        1.10089537      11.53936890       8.75538813      -0.03342027      -0.07047806      -0.07708369      -0.09647486       0.87326227       0.27683213
I       10.02108956      13.01607067      11.02554716       0.10477005       0.07466831      -0.07541735      -0.24223621       0.36412017       1.70588347
I        9.74419184       6.02595994       8.56895460       0.16667545      -0.02302097       0.05142343      -1.64896412       0.44213080       1.55521197
I       16.78993799       4.69154442       8.45039857       0.00997526       0.05728143       0.02600942       0.55459089      -1.13804785       0.44081439
I        3.18281372      14.60675812      10.99392376      -0.08832675       0.05798158       0.09247870       1.87541092       0.74636594       0.06729950
I       12.08556851       9.80586044       8.56290865      -0.30183456      -0.04135133       0.14645094       0.52892989       0.88461772       3.80635580
I        7.99679767       9.28378748      10.91227303       0.10577966      -0.14616045      -0.22718122      -0.85215390       1.95606586       1.41008043
I        4.78926769       7.59641951       8.57177880      -0.04811025      -0.01377556       0.01831369      -2.22564921       0.57936723      -1.33611421
I       15.25323480      11.65485109      10.62663979      -0.18250689      -0.00654751       0.27612757       1.64299650       2.04521073       0.21300320
I        6.18454911      12.77902329       8.63170552      -0.05304134       0.12420432      -0.11630164      -0.63351271       2.23231811       1.90842614
I       13.76219636       6.06492992      10.80842187      -0.09940983       0.31158029       0.22658234       1.04681320       3.23554435      -1.39608691
Cs       6.90604933       5.30101767      15.74065775      -0.10827267      -0.00645212       0.02917630      -0.31927804       0.37231635       1.51942747
Cs      13.32201895      13.80059815      13.46461859      -0.07520573       0.05454098      -0.17905580      -1.54664856      -0.27411670       0.05323898
Cs       4.16325545      10.65340840      15.91698635       0.00393858       0.03984177      -0.10485268       0.21781857       1.22695123       2.88496136
Cs      15.94168921       8.60439378      13.31063340      -0.07734390       0.02125942      -0.06288805       0.00072686       0.32857441      -0.19786361
Cs       6.70770129       5.30271920       1.23556025       0.07349866       0.04497104       0.15571922      -0.27361908      -1.28351743      -0.00055328
Cs      13.07998254      13.94978974      18.11430108      -0.11453852      -0.11619935      -0.00768512       0.56774171       1.46470871       1.38527528
Cs       4.08015600      10.61094744       1.43437768       0.01853989      -0.02143266       0.00355890      -1.21249918      -1.54780361      -0.55948371
Cs      15.83447297       8.54474302      18.16343177       0.11685252       0.07281992       0.03106003      -0.71841185       0.57849851       1.58039580
Pb       2.17421918       6.10289577      13.41644008       0.31163575       0.33856289       0.20167670      -0.30315730       2.16253021      -2.99309373
Pb      17.92936966      13.04914289      15.76501755       0.21405999       0.23951013       0.00828775      -0.22072341      -0.46569793      -0.21046092
Pb       8.99219896      11.02898425      13.32473069      -0.34836994       0.30153435      -0.15238594       2.33075191       1.58346856       0.87925508
Pb      11.06978249       7.90183173      15.89900069      -0.17096792       0.11445059       0.10549675       0.60899979      -1.70247069       0.06821953
Pb       2.09384105       6.17388847      18.27874429       0.14154191       0.03504233      -0.12741992       1.35572497       0.11536167      -1.10397152
Pb      17.75751727      13.31885622       1.19337188       0.24508758      -0.17562856       0.11474194       1.16330467       0.91076502       0.25436607
Pb       8.94183251      11.41959261      18.00228749       0.23962224      -0.36310822       0.42395664      -1.00424139       2.50339021      -2.24329248
Pb      10.97294238       7.67258189       1.51837451       0.12555403       0.18495647      -0.44522556      -0.56608147      -0.13204801       0.47363353
I        1.09121765       8.15213840      15.96301641       0.01072659      -0.16589063      -0.19833671       0.56783725       0.48784526       0.80224477
I        1.04036421      11.55136294      13.48412252       0.01324271      -0.08299160      -0.22770421       0.40808290       1.12111426       0.95932282
I        9.99299287      13.05421114      15.55773648       0.22235781       0.22010493       0.27515954       2.00646416       0.17407692      -0.56930153
I       10.03467807       5.88536466      13.46196523      -0.06016632       0.04252111      -0.06011986       0.50462225      -1.12930486       0.12904019
I       17.09233818       4.85712195      13.41892727      -0.33766146      -0.20990111       0.07735434       1.00558972       1.14167505       1.27037846
I        3.10306943      14.68707448      15.77368572       0.14875231      -0.15131578       0.23829089       0.61597176       0.70011339      -0.72871003
I       12.13023344       9.84574681      13.39620136      -0.03283244      -0.09735938      -0.04245806      -0.79260653      -0.55340791      -0.34725809
I        7.94020761       9.18071728      15.88373127      -0.00243525       0.07810417      -0.05633076      -1.02074608      -1.16205213      -0.78996877
I        4.90383959       7.82797862      13.47079562      -0.10224035      -0.29942901      -0.03922674       1.78965030      -0.10883196       1.17189743
I       15.26001073      11.65991775      15.74199793      -0.22225853      -0.19014098       0.02997673      -1.57573886       1.95666221       1.31472578
I        6.37323474      12.91527930      13.33715457       0.06798418      -0.28568910       0.08761517       0.30107462      -0.13745397      -0.74530197
I       13.70483427       6.47429900      15.87654333       0.29742956      -0.21811480      -0.16656860       0.40167939      -0.35402881       0.71845365
I        1.03964350       7.93567227       1.47705751      -0.17908181       0.27105116      -0.25321506      -1.97391914       1.27788047       1.73307835
I        1.15616644      11.54885087      18.41181659      -0.03342027      -0.07047806      -0.07708369      -0.09647486       0.87326227       0.27683213
I        9.96581849      13.00658870       1.36911870       0.10477005       0.07466831      -0.07541735      -0.24223621       0.36412017       1.70588347
I        9.79946291       6.03544191      18.22538306       0.16667545      -0.02302097       0.05142343      -1.64896412       0.44213080       1.55521197
I       16.84520906       4.70102639      18.10682703       0.00997526       0.05728143       0.02600942       0.55459089      -1.13804785       0.44081439
I        3.12754265      14.59727615       1.33749530      -0.08832675       0.05798158       0.09247870       1.87541092       0.74636594       0.06729950
I       12.14083958       9.81534241      18.21933711      -0.30183456      -0.04135133       0.14645094       0.52892989       0.88461772       3.80635580
I        7.94152660       9.27430551       1.25584457       0.10577966      -0.14616045      -0.22718122      -0.85215390       1.95606586       1.41008043
I        4.84453876       7.60590148      18.22820726      -0.04811025      -0.01377556       0.01831369      -2.22564921       0.57936723      -1.33611421
I       15.19796373      11.64536912       0.97021133      -0.18250689      -0.00654751       0.27612757       1.64299650       2.04521073       0.21300320
I        6.23982018      12.78850526      18.28813398      -0.05304134       0.12420432      -0.11630164      -0.63351271       2.23231811       1.90842614
I       13.70692529       6.05544795       1.15199341      -0.09940983       0.31158029       0.22658234       1.04681320       3.23554435      -1.39608691
Cs       6.96367625      15.79631328       6.07657584      -0.10827267      -0.00645212       0.02917630      -0.31927804       0.37231635       1.51942747
Cs      13.15384989       3.28633860       3.81584358      -0.07520573       0.05454098      -0.17905580      -1.54664856      -0.27411670       0.05323898
Cs       3.99508639       0.13914885       6.26821134       0.00393858       0.03984177      -0.10485268       0.21781857       1.22695123       2.88496136
Cs      15.99931613      19.09968939       3.64655149      -0.07734390       0.02125942      -0.06288805       0.00072686       0.32857441      -0.19786361
Cs       6.87587035      15.81697875      10.88433526       0.07349866       0.04497104       0.15571922      -0.27361908      -1.28351743      -0.00055328
Cs      12.91181348       3.43553019       8.46552607      -0.11453852      -0.11619935      -0.00768512       0.56774171       1.46470871       1.38527528
Cs       4.02252908       0.11565183      11.09845959       0.01853989      -0.02143266       0.00355890      -1.21249918      -1.54780361      -0.55948371
Cs      15.89209989      19.04003863       8.49934986       0.11685252       0.07281992       0.03106003      -0.71841185       0.57849851       1.58039580
Pb       2.23184610      16.59819138       3.75235817       0.31163575       0.33856289       0.20167670      -0.30315730       2.16253021      -2.99309373
Pb      17.76120060       2.53488334       6.11624254       0.21405999       0.23951013       0.00828775      -0.22072341      -0.46569793      -0.21046092
Pb       8.82402990       0.51472470       3.67595568      -0.34836994       0.30153435      -0.15238594       2.33075191       1.58346856       0.87925508
Pb      11.12740941      18.39712734       6.23491878      -0.17096792       0.11445059       0.10549675       0.60899979      -1.70247069       0.06821953
Pb       2.15146797      16.66918408       8.61466238       0.14154191       0.03504233      -0.12741992       1.35572497       0.11536167      -1.10397152
Pb      17.69989035       2.82356061      10.85745379       0.24508758      -0.17562856       0.11474194       1.16330467       0.91076502       0.25436607
Pb       8.77366345       0.90533306       8.35351248       0.23962224      -0.36310822       0.42395664      -1.00424139       2.50339021      -2.24329248
Pb      11.14111144      18.18684144      11.16714952       0.12555403       0.18495647      -0.44522556      -0.56608147      -0.13204801       0.47363353
I        1.14884457      18.64743401       6.29893450       0.01072659      -0.16589063      -0.19833671       0.56783725       0.48784526       0.80224477
I        0.87219515       1.03710339       3.83534751       0.01324271      -0.08299160      -0.22770421       0.40808290       1.12111426       0.95932282
I        9.82482381       2.53995159       5.90896147       0.22235781       0.22010493       0.27515954       2.00646416       0.17407692      -0.56930153
I       10.09230499      16.38066027       3.79788332      -0.06016632       0.04252111      -0.06011986       0.50462225      -1.12930486       0.12904019
I       17.14996510      15.35241756       3.75484536      -0.33766146      -0.20990111       0.07735434       1.00558972       1.14167505       1.27037846
I        2.93490037       4.17281493       6.12491071       0.14875231      -0.15131578       0.23829089       0.61597176       0.70011339      -0.72871003
I       12.18786036      20.34104242       3.73211945      -0.03283244      -0.09735938      -0.04245806      -0.79260653      -0.55340791      -0.34725809
I        7.99783453      19.67601289       6.21964936      -0.00243525       0.07810417      -0.05633076      -1.02074608      -1.16205213      -0.78996877
I        4.96146651      18.32327423       3.80671371      -0.10224035      -0.29942901      -0.03922674       1.78965030      -0.10883196       1.17189743
I       15.09184167       1.14565820       6.09322292      -0.22225853      -0.19014098       0.02997673      -1.57573886       1.95666221       1.31472578
I        6.20506568       2.40101975       3.68837956       0.06798418      -0.28568910       0.08761517       0.30107462      -0.13745397      -0.74530197
I       13.76246119      16.96959461       6.21246142       0.29742956      -0.21811480      -0.16656860       0.40167939      -0.35402881       0.71845365
I        1.20781256      18.44993182      11.12583252      -0.17908181       0.27105116      -0.25321506      -1.97391914       1.27788047       1.73307835
I        0.98799738       1.03459132       8.76304158      -0.03342027      -0.07047806      -0.07708369      -0.09647486       0.87326227       0.27683213
I        9.90819157       2.51129309      11.03320061       0.10477005       0.07466831      -0.07541735      -0.24223621       0.36412017       1.70588347
I        9.85708983      16.53073752       8.56130115       0.16667545      -0.02302097       0.05142343      -1.64896412       0.44213080       1.55521197
I       16.90283598      15.19632200       8.44274512       0.00997526       0.05728143       0.02600942       0.55459089      -1.13804785       0.44081439
I        3.06991573       4.10198054      11.00157721      -0.08832675       0.05798158       0.09247870       1.87541092       0.74636594       0.06729950
I       12.19846650      20.31063802       8.55525520      -0.30183456      -0.04135133       0.14645094       0.52892989       0.88461772       3.80635580
I        8.10969566      19.78856506      10.90461958       0.10577966      -0.14616045      -0.22718122      -0.85215390       1.95606586       1.41008043
I        4.90216568      18.10119709       8.56412535      -0.04811025      -0.01377556       0.01831369      -2.22564921       0.57936723      -1.33611421
I       15.14033681       1.15007351      10.63429324      -0.18250689      -0.00654751       0.27612757       1.64299650       2.04521073       0.21300320
I        6.07165112       2.27424571       8.63935897      -0.05304134       0.12420432      -0.11630164      -0.63351271       2.23231811       1.90842614
I       13.87509435      16.56970750      10.80076842      -0.09940983       0.31158029       0.22658234       1.04681320       3.23554435      -1.39608691
Cs       7.01894732      15.80579525      15.73300430      -0.10827267      -0.00645212       0.02917630      -0.31927804       0.37231635       1.51942747
Cs      13.20912095       3.29582057      13.47227204      -0.07520573       0.05454098      -0.17905580      -1.54664856      -0.27411670       0.05323898
Cs       4.05035745       0.14863082      15.92463980       0.00393858       0.03984177      -0.10485268       0.21781857       1.22695123       2.88496136
Cs      16.05458720      19.10917136      13.30297995      -0.07734390       0.02125942      -0.06288805       0.00072686       0.32857441      -0.19786361
Cs       6.82059929      15.80749678       1.22790680       0.07349866       0.04497104       0.15571922      -0.27361908      -1.28351743      -0.00055328
Cs      12.96708454       3.44501216      18.12195453      -0.11453852      -0.11619935      -0.00768512       0.56774171       1.46470871       1.38527528
Cs       3.96725801       0.10616986       1.44203113       0.01853989      -0.02143266       0.00355890      -1.21249918      -1.54780361      -0.55948371
Cs      15.94737096      19.04952060      18.15577832       0.11685252       0.07281992       0.03106003      -0.71841185       0.57849851       1.58039580
Pb       2.28711717      16.60767335      13.40878663       0.31163575       0.33856289       0.20167670      -0.30315730       2.16253021      -2.99309373
Pb      17.81647166       2.54436531      15.77267100       0.21405999       0.23951013       0.00828775      -0.22072341      -0.46569793      -0.21046092
Pb       8.87930096       0.52420667      13.33238414      -0.34836994       0.30153435      -0.15238594       2.33075191       1.58346856       0.87925508
Pb      11.18268048      18.40660931      15.89134724      -0.17096792       0.11445059       0.10549675       0.60899979      -1.70247069       0.06821953
Pb       2.20673904      16.67866605      18.27109084       0.14154191       0.03504233      -0.12741992       1.35572497       0.11536167      -1.10397152
Pb      17.64461928       2.81407864       1.20102533       0.24508758      -0.17562856       0.11474194       1.16330467       0.91076502       0.25436607
Pb       8.82893451       0.91481503      18.00994094       0.23962224      -0.36310822       0.42395664      -1.00424139       2.50339021      -2.24329248
Pb      11.08584038      18.17735947       1.51072106       0.12555403       0.18495647      -0.44522556      -0.56608147      -0.13204801       0.47363353
I        1.20411564      18.65691598      15.95536296       0.01072659      -0.16589063      -0.19833671       0.56783725       0.48784526       0.80224477
I        0.92746621       1.04658536      13.49177597       0.01324271      -0.08299160      -0.22770421       0.40808290       1.12111426       0.95932282
I        9.88009487       2.54943356      15.56538993       0.22235781       0.22010493       0.27515954       2.00646416       0.17407692      -0.56930153
I       10.14757606      16.39014224      13.45431178      -0.06016632       0.04252111      -0.06011986       0.50462225      -1.12930486       0.12904019
I       17.20523617      15.36189953      13.41127382      -0.33766146      -0.20990111       0.07735434       1.00558972       1.14167505       1.27037846
I        2.99017143       4.18229690      15.78133917       0.14875231      -0.15131578       0.23829089       0.61597176       0.70011339      -0.72871003
I       12.24313143      20.35052439      13.38854791      -0.03283244      -0.09735938      -0.04245806      -0.79260653      -0.55340791      -0.34725809
I        8.05310560      19.68549486      15.87607782      -0.00243525       0.07810417      -0.05633076      -1.02074608      -1.16205213      -0.78996877
I        5.01673758      18.33275620      13.46314217      -0.10224035      -0.29942901      -0.03922674       1.78965030      -0.10883196       1.17189743
I       15.14711273       1.15514017      15.74965138      -0.22225853      -0.19014098       0.02997673      -1.57573886       1.95666221       1.31472578
I        6.26033674       2.41050172      13.34480802       0.06798418      -0.28568910       0.08761517       0.30107462      -0.13745397      -0.74530197
I       13.81773226      16.97907658      15.86888988       0.29742956      -0.21811480      -0.16656860       0.40167939      -0.35402881       0.71845365
I        1.15254150      18.44044985       1.46940406      -0.17908181       0.27105116      -0.25321506      -1.97391914       1.27788047       1.73307835
I        1.04326844       1.04407329      18.41947004      -0.03342027      -0.07047806      -0.07708369      -0.09647486       0.87326227       0.27683213
I        9.85292050       2.50181112       1.37677215       0.10477005       0.07466831      -0.07541735      -0.24223621       0.36412017       1.70588347
I        9.91236090      16.54021949      18.21772961       0.16667545      -0.02302097       0.05142343      -1.64896412       0.44213080       1.55521197
I       16.95810705      15.20580397      18.09917358       0.00997526       0.05728143       0.02600942       0.55459089      -1.13804785       0.44081439
I        3.01464466       4.09249857       1.34514875      -0.08832675       0.05798158       0.09247870       1.87541092       0.74636594       0.06729950
I       12.25373757      20.32011999      18.21168366      -0.30183456      -0.04135133       0.14645094       0.52892989       0.88461772       3.80635580
I        8.05442460      19.77908309       1.24819112       0.10577966      -0.14616045      -0.22718122      -0.85215390       1.95606586       1.41008043
I        4.95743675      18.11067906      18.22055381      -0.04811025      -0.01377556       0.01831369      -2.22564921       0.57936723      -1.33611421
I       15.08506574       1.14059154       0.97786478      -0.18250689      -0.00654751       0.27612757       1.64299650       2.04521073       0.21300320
I        6.12692218       2.28372768      18.29578743      -0.05304134       0.12420432      -0.11630164      -0.63351271       2.23231811       1.90842614
I       13.81982329      16.56022553       1.14433996      -0.09940983       0.31158029       0.22658234       1.04681320       3.23554435      -1.39608691
Cs      24.74474847       5.10233647       5.96314372      -0.10827267      -0.00645212       0.02917630      -0.31927804       0.37231635       1.51942747
Cs      31.16071809      13.60191695       3.68710456      -0.07520573       0.05454098      -0.17905580      -1.54664856      -0.27411670       0.05323898
Cs      22.00195459      10.45472720       6.13947232       0.00393858       0.03984177      -0.10485268       0.21781857       1.22695123       2.88496136
Cs      33.78038835       8.40571258       3.53311937      -0.07734390       0.02125942      -0.06288805       0.00072686       0.32857441      -0.19786361
Cs      24.65694257       5.12300194      10.77090314       0.07349866       0.04497104       0.15571922      -0.27361908      -1.28351743      -0.00055328
Cs      30.91868168      13.75110854       8.33678705      -0.11453852      -0.11619935      -0.00768512       0.56774171       1.46470871       1.38527528
Cs      22.02939728      10.43123018      10.96972057       0.01853989      -0.02143266       0.00355890      -1.21249918      -1.54780361      -0.55948371
Cs      33.67317211       8.34606182       8.38591774       0.11685252       0.07281992       0.03106003      -0.71841185       0.57849851       1.58039580
Pb      20.01291832       5.90421457       3.63892605       0.31163575       0.33856289       0.20167670      -0.30315730       2.16253021      -2.99309373
Pb      35.76806880      12.85046169       5.98750352       0.21405999       0.23951013       0.00828775      -0.22072341      -0.46569793      -0.21046092
Pb      26.83089810      10.83030305       3.54721666      -0.34836994       0.30153435      -0.15238594       2.33075191       1.58346856       0.87925508
Pb      28.90848163       7.70315053       6.12148666      -0.17096792       0.11445059       0.10549675       0.60899979      -1.70247069       0.06821953
Pb      19.93254019       5.97520727       8.50123026       0.14154191       0.03504233      -0.12741992       1.35572497       0.11536167      -1.10397152
Pb      35.70675855      13.13913896      10.72871477       0.24508758      -0.17562856       0.11474194       1.16330467       0.91076502       0.25436607
Pb      26.78053165      11.22091141       8.22477346       0.23962224      -0.36310822       0.42395664      -1.00424139       2.50339021      -2.24329248
Pb      28.92218366       7.49286463      11.05371740       0.12555403       0.18495647      -0.44522556      -0.56608147      -0.13204801       0.47363353
I       18.92991679       7.95345720       6.18550238       0.01072659      -0.16589063      -0.19833671       0.56783725       0.48784526       0.80224477
I       18.87906335      11.35268174       3.70660849       0.01324271      -0.08299160      -0.22770421       0.40808290       1.12111426       0.95932282
I       27.83169201      12.85552994       5.78022245       0.22235781       0.22010493       0.27515954       2.00646416       0.17407692      -0.56930153
I       27.87337721       5.68668346       3.68445120      -0.06016632       0.04252111      -0.06011986       0.50462225      -1.12930486       0.12904019
I       34.93103732       4.65844075       3.64141324      -0.33766146      -0.20990111       0.07735434       1.00558972       1.14167505       1.27037846
I       20.94176857      14.48839328       5.99617169       0.14875231      -0.15131578       0.23829089       0.61597176       0.70011339      -0.72871003
I       29.96893258       9.64706561       3.61868733      -0.03283244      -0.09735938      -0.04245806      -0.79260653      -0.55340791      -0.34725809
I       25.77890675       8.98203608       6.10621724      -0.00243525       0.07810417      -0.05633076      -1.02074608      -1.16205213      -0.78996877
I       22.74253873       7.62929742       3.69328159      -0.10224035      -0.29942901      -0.03922674       1.78965030      -0.10883196       1.17189743
I       33.09870987      11.46123655       5.96448390      -0.22225853      -0.19014098       0.02997673      -1.57573886       1.95666221       1.31472578
I       24.21193388      12.71659810       3.55964054       0.06798418      -0.28568910       0.08761517       0.30107462      -0.13745397      -0.74530197
I       31.54353341       6.27561780       6.09902930       0.29742956      -0.21811480      -0.16656860       0.40167939      -0.35402881       0.71845365
I       18.98888478       7.75595501      11.01240040      -0.17908181       0.27105116      -0.25321506      -1.97391914       1.27788047       1.73307835
I       18.99486558      11.35016967       8.63430256      -0.03342027      -0.07047806      -0.07708369      -0.09647486       0.87326227       0.27683213