320
Lattice="31.392636507215773 -0.04481615214523286 0.09492011689125937 0.1392903615087138 28.887165468702893 0.25788863917263216 -0.2799812260619887 -0.14238296324623026 16.953981605175922" Properties=species:S:1:pos:R:3:forces:R:3:momenta:R:3 pbc="T T T"
Cs       1.65659142       1.63300607       2.13605933      -0.13179665      -0.01047045       0.07748726      -2.08025199      -0.66631399       0.10907808
Cs       5.37709887       4.16270889       6.64322052       0.09302610      -0.11207798       0.00594041       0.52132824      -2.19432334       1.49563470
Cs       1.02601949       8.88494095      15.18271490      -0.02670430      -0.05235582      -0.01198500      -0.71820669      -0.99204833      -0.92641131
Cs       5.84195040      11.06376002       2.60556316      -0.10179031      -0.02960865      -0.11814915       0.85981611      -1.03160217      -1.09743498
Cs       9.01072998       1.17725755       2.35018611      -0.01778326       0.05374075       0.03601313      -0.33238163      -0.58341959      -0.12849987
Cs      13.18003837       3.82575851       6.55237903       0.00380799       0.07964724       0.02547193      -0.40049471      -1.82307362      -1.94368522
Cs       9.40491057       8.39590488      15.10770971       0.08820573       0.02919053       0.02245497      -3.31038187       0.49870839      -0.30824930
Cs      12.67994065      11.38050116       2.53926304       0.08476473       0.03395539       0.00588435      -0.90683858      -1.66497216      -1.72619850
Pb       2.75767240      13.49810803       6.56869273       0.02672576      -0.17773390      -0.09288997      -0.10359665       0.52971750      -1.85113060
Pb       6.70459030      13.31204035       6.67140575       0.10522308      -0.00367590      -0.23130447       0.93504028      -0.65558502       0.37592171
Pb       4.05735256       6.48382295       2.49242780       0.21676970      -0.15148889      -0.07046278      -1.41052163      -2.53707146       1.76416643
Pb       0.26319484       6.57405865       2.36836257      -0.38646805      -0.11179783       0.22026519       0.39939175       0.94770341       1.88423300
Pb      10.71880252      13.65307416       6.85503302      -0.03129094      -0.18082154      -0.19651434       1.00913058      -2.21585954      -4.95900202
Pb      14.58349324      13.63200971       6.85883643      -0.24602116       0.09194897      -0.19830953      -0.40320664       1.76266098      -1.93723902
Pb      11.89353620       6.23335234       2.34245047      -0.20362175      -0.08621322       0.27565300      -0.59092302      -0.66995674      -3.30522160
Pb       7.97508251       6.12132386       2.26810583       0.25836893      -0.02024562      -0.03794410       1.39823916       1.63789248      -0.80226424
I        4.69333219       0.31941081       0.26302375       0.16374820      -0.25818608      -0.18137319      -0.08340832      -0.74331842       0.71974795
I        2.11702159       5.51185470       0.10312202       0.06907440      -0.10660286      -0.14631000      -0.66425134       0.19671552       0.35674105
I        4.74995579       0.37696702       4.32808948      -0.05310935      -0.03289493       0.09186216      -1.76407894      -2.19987045       1.25474904
I        2.25280170       4.83880866       4.53174520      -0.28025692       0.14607030      -0.18618990      -0.71756388      -2.00778647      -0.53090141
I        5.94326693       3.71912251       2.26949524      -0.11894481      -0.01344855      -0.02879279      -0.60728085       1.16435088      -0.26894296
I        0.88096763       1.67756951       6.81726885       0.02024144       0.16087862      -0.00803505       0.42627674      -0.09333197      -0.02678515
I        6.45289012       7.43208492       4.56862337      -0.32195881       0.18318837       0.20086703       1.47145639       1.26834347       0.41763939
I        0.40652698      12.36880068       4.40276522       0.20257378       0.17578804      -0.02424687       0.41636247      -0.34550255      -0.15559501
I        5.71083286       7.32962914      17.01932231       0.04735013       0.19947647       0.04459272       0.00472859       0.41783305       0.62046077
I        0.78398945      12.05807492       0.21326732       0.16105155       0.06600784       0.13635575       1.72500614      -0.06572826       1.70379033
I        4.56413027      10.80112696       6.17471963       0.06422532       0.16820564       0.13440450       1.21640095      -1.29712766      -1.01958626
I        2.28620147       9.09624186       2.77091941       0.02178807       0.03174967       0.01486374       0.29296011       0.52991715       0.28145092
I       12.60306376       0.30997514       0.69446231      -0.09110881      -0.04278924      -0.13813384       0.17975152      -1.08314498       1.18254999
I        9.68989814       4.96816935      16.92170727       0.19197853      -0.02715343      -0.06901377       1.32783040       0.75727614      -1.08477987
I       12.29559934       0.98552896       4.70769032       0.12037010      -0.09142208       0.11015054      -2.27595027       0.95684303       0.40472714
I        9.86739502       4.52461078       4.37583079       0.05249614       0.07234228      -0.13706768      -0.17218036      -1.70752931      -0.20234158
I       13.99289407       3.98475195       2.06993097       0.38214740      -0.29467579      -0.03030877       0.22871186      -1.95548461      -1.88013002
I        8.45265496       1.51525630       6.88764462      -0.17189041      -0.07167257      -0.00708659       0.33191658      -1.27810253       0.98970080
I       13.81787671       7.25774311       4.80351253      -0.01431663       0.05677133       0.07964603       0.51754685       0.80684199      -0.15459861
I        8.89751447      12.13678424       4.37886489      -0.10548087       0.38559853       0.49257783      -1.74520614      -0.25375404       0.33940681
I       13.69557025       8.08485265       0.54909833       0.29481216      -0.03430653      -0.11662518      -0.65547828      -0.60751865       1.25617081
I        8.73091174      11.90711883       0.24081822       0.04490801      -0.07372823       0.15665755       0.62233156       3.24723690      -1.57982089
I       12.73971130      11.09853905       6.39253977      -0.20480721      -0.03031279       0.04529408       0.34020777      -1.51688029      -0.13180930
I       10.00161586       8.72978046       2.87746526      -0.20630699       0.07912289      -0.14569920       1.54539825       1.58754235      -0.06049740
Cs       1.51660081       1.56181459      10.61305013      -0.13179665      -0.01047045       0.07748726      -2.08025199      -0.66631399       0.10907808
Cs       5.23710826       4.09151741      15.12021132       0.09302610      -0.11207798       0.00594041       0.52132824      -2.19432334       1.49563470
Cs       1.16601011       8.95613243       6.70572409      -0.02670430      -0.05235582      -0.01198500      -0.71820669      -0.99204833      -0.92641131
Cs       5.70195979      10.99256854      11.08255396      -0.10179031      -0.02960865      -0.11814915       0.85981611      -1.03160217      -1.09743498
Cs       8.87073937       1.10606607      10.82717691      -0.01778326       0.05374075       0.03601313      -0.33238163      -0.58341959      -0.12849987
Cs      13.04004776       3.75456703      15.02936983       0.00380799       0.07964724       0.02547193      -0.40049471      -1.82307362      -1.94368522
Cs       9.54490119       8.46709636       6.63071890       0.08820573       0.02919053       0.02245497      -3.31038187       0.49870839      -0.30824930
Cs      12.53995004      11.30930968      11.01625384       0.08476473       0.03395539       0.00588435      -0.90683858      -1.66497216      -1.72619850
Pb       2.61768179      13.42691655      15.04568353       0.02672576      -0.17773390      -0.09288997      -0.10359665       0.52971750      -1.85113060
Pb       6.56459969      13.24084887      15.14839655       0.10522308      -0.00367590      -0.23130447       0.93504028      -0.65558502       0.37592171
Pb       3.91736195       6.41263147      10.96941860       0.21676970      -0.15148889      -0.07046278      -1.41052163      -2.53707146       1.76416643
Pb       0.12320423       6.50286717      10.84535337      -0.38646805      -0.11179783       0.22026519       0.39939175       0.94770341       1.88423300
Pb      10.57881191      13.58188268      15.33202382      -0.03129094      -0.18082154      -0.19651434       1.00913058      -2.21585954      -4.95900202
Pb      14.44350263      13.56081823      15.33582723      -0.24602116       0.09194897      -0.19830953      -0.40320664       1.76266098      -1.93723902
Pb      11.75354559       6.16216086      10.81944127      -0.20362175      -0.08621322       0.27565300      -0.59092302      -0.66995674      -3.30522160
Pb       7.83509190       6.05013238      10.74509663       0.25836893      -0.02024562      -0.03794410       1.39823916       1.63789248      -0.80226424
I        4.55334158       0.24821933       8.74001455       0.16374820      -0.25818608      -0.18137319      -0.08340832      -0.74331842       0.71974795
I        1.97703098       5.44066322       8.58011282       0.06907440      -0.10660286      -0.14631000      -0.66425134       0.19671552       0.35674105
I        4.60996518       0.30577554      12.80508028      -0.05310935      -0.03289493       0.09186216      -1.76407894      -2.19987045       1.25474904
I        2.11281109       4.76761718      13.00873600      -0.28025692       0.14607030      -0.18618990      -0.71756388      -2.00778647      -0.53090141
I        5.80327632       3.64793103      10.74648604      -0.11894481      -0.01344855      -0.02879279      -0.60728085       1.16435088      -0.26894296
I        0.74097702       1.60637803      15.29425965       0.02024144       0.16087862      -0.00803505       0.42627674      -0.09333197      -0.02678515
I        6.31289951       7.36089344      13.04561417      -0.32195881       0.18318837       0.20086703       1.47145639       1.26834347       0.41763939
I        0.26653637      12.29760920      12.87975602       0.20257378       0.17578804      -0.02424687       0.41636247      -0.34550255      -0.15559501
I        5.85082348       7.40082062       8.54233150       0.04735013       0.19947647       0.04459272       0.00472859       0.41783305       0.62046077
I        0.64399884      11.98688344       8.69025812       0.16105155       0.06600784       0.13635575       1.72500614      -0.06572826       1.70379033
I        4.42413966      10.72993548      14.65171043       0.06422532       0.16820564       0.13440450       1.21640095      -1.29712766      -1.01958626
I        2.14621086       9.02505038      11.24791021       0.02178807       0.03174967       0.01486374       0.29296011       0.52991715       0.28145092
I       12.46307315       0.23878366       9.17145311      -0.09110881      -0.04278924      -0.13813384       0.17975152      -1.08314498       1.18254999
I        9.82988876       5.03936083       8.44471646       0.19197853      -0.02715343      -0.06901377       1.32783040       0.75727614      -1.08477987
I       12.15560873       0.91433748      13.18468112       0.12037010      -0.09142208       0.11015054      -2.27595027       0.95684303       0.40472714
I        9.72740441       4.45341930      12.85282159       0.05249614       0.07234228      -0.13706768      -0.17218036      -1.70752931      -0.20234158
I       13.85290346       3.91356047      10.54692177       0.38214740      -0.29467579      -0.03030877       0.22871186      -1.95548461      -1.88013002
I        8.31266435       1.44406482      15.36463542      -0.17189041      -0.07167257      -0.00708659       0.33191658      -1.27810253       0.98970080
I       13.67788610       7.18655163      13.28050333      -0.01431663       0.05677133       0.07964603       0.51754685       0.80684199      -0.15459861
I        8.75752386      12.06559276      12.85585569      -0.10548087       0.38559853       0.49257783      -1.74520614      -0.25375404       0.33940681
I       13.55557964       8.01366117       9.02608913       0.29481216      -0.03430653      -0.11662518      -0.65547828      -0.60751865       1.25617081
I        8.59092113      11.83592735       8.71780902       0.04490801      -0.07372823       0.15665755       0.62233156       3.24723690      -1.57982089
I       12.59972069      11.02734757      14.86953057      -0.20480721      -0.03031279       0.04529408       0.34020777      -1.51688029      -0.13180930
I        9.86162525       8.65858898      11.35445606      -0.20630699       0.07912289      -0.14569920       1.54539825       1.58754235      -0.06049740
Cs       1.72623660      16.07658880       2.26500365      -0.13179665      -0.01047045       0.07748726      -2.08025199      -0.66631399       0.10907808
Cs       5.44674405      18.60629162       6.77216484       0.09302610      -0.11207798       0.00594041       0.52132824      -2.19432334       1.49563470
Cs       1.09566467      23.32852368      15.31165921      -0.02670430      -0.05235582      -0.01198500      -0.71820669      -0.99204833      -0.92641131
Cs       5.91159558      25.50734275       2.73450748      -0.10179031      -0.02960865      -0.11814915       0.85981611      -1.03160217      -1.09743498
Cs       9.08037516      15.62084028       2.47913043      -0.01778326       0.05374075       0.03601313      -0.33238163      -0.58341959      -0.12849987
Cs      13.24968355      18.26934124       6.68132335       0.00380799       0.07964724       0.02547193      -0.40049471      -1.82307362      -1.94368522
Cs       9.47455575      22.83948761      15.23665402       0.08820573       0.02919053       0.02245497      -3.31038187       0.49870839      -0.30824930
Cs      12.74958583      25.82408389       2.66820736       0.08476473       0.03395539       0.00588435      -0.90683858      -1.66497216      -1.72619850
Pb       2.82731758      27.94169076       6.69763705       0.02672576      -0.17773390      -0.09288997      -0.10359665       0.52971750      -1.85113060
Pb       6.77423548      27.75562308       6.80035007       0.10522308      -0.00367590      -0.23130447       0.93504028      -0.65558502       0.37592171
Pb       4.12699774      20.92740568       2.62137212       0.21676970      -0.15148889      -0.07046278      -1.41052163      -2.53707146       1.76416643
Pb       0.33284002      21.01764138       2.49730689      -0.38646805      -0.11179783       0.22026519       0.39939175       0.94770341       1.88423300
Pb      10.78844770      28.09665689       6.98397734      -0.03129094      -0.18082154      -0.19651434       1.00913058      -2.21585954      -4.95900202
Pb      14.65313842      28.07559244       6.98778075      -0.24602116       0.09194897      -0.19830953      -0.40320664       1.76266098      -1.93723902
Pb      11.96318138      20.67693507       2.47139479      -0.20362175      -0.08621322       0.27565300      -0.59092302      -0.66995674      -3.30522160
Pb       8.04472769      20.56490659       2.39705015       0.25836893      -0.02024562      -0.03794410       1.39823916       1.63789248      -0.80226424
I        4.76297737      14.76299354       0.39196807       0.16374820      -0.25818608      -0.18137319      -0.08340832      -0.74331842       0.71974795
I        2.18666677      19.95543743       0.23206634       0.06907440      -0.10660286      -0.14631000      -0.66425134       0.19671552       0.35674105
I        4.81960097      14.82054975       4.45703380      -0.05310935      -0.03289493       0.09186216      -1.76407894      -2.19987045       1.25474904
I        2.32244688      19.28239139       4.66068952      -0.28025692       0.14607030      -0.18618990      -0.71756388      -2.00778647      -0.53090141
I        6.01291211      18.16270524       2.39843956      -0.11894481      -0.01344855      -0.02879279      -0.60728085       1.16435088      -0.26894296
I        0.95061281      16.12115224       6.94621317       0.02024144       0.16087862      -0.00803505       0.42627674      -0.09333197      -0.02678515
I        6.52253530      21.87566765       4.69756769      -0.32195881       0.18318837       0.20086703       1.47145639       1.26834347       0.41763939
I        0.47617216      26.81238341       4.53170954       0.20257378       0.17578804      -0.02424687       0.41636247      -0.34550255      -0.15559501
I        5.78047804      21.77321187      17.14826662       0.04735013       0.19947647       0.04459272       0.00472859       0.41783305       0.62046077
I        0.85363463      26.50165765       0.34221164       0.16105155       0.06600784       0.13635575       1.72500614      -0.06572826       1.70379033
I        4.63377545      25.24470969       6.30366395       0.06422532       0.16820564       0.13440450       1.21640095      -1.29712766      -1.01958626
I        2.35584665      23.53982459       2.89986373       0.02178807       0.03174967       0.01486374       0.29296011       0.52991715       0.28145092
I       12.67270894      14.75355787       0.82340663      -0.09110881      -0.04278924      -0.13813384       0.17975152      -1.08314498       1.18254999
I        9.75954332      19.41175208      17.05065158       0.19197853      -0.02715343      -0.06901377       1.32783040       0.75727614      -1.08477987
I       12.36524452      15.42911169       4.83663464       0.12037010      -0.09142208       0.11015054      -2.27595027       0.95684303       0.40472714
I        9.93704020      18.96819351       4.50477511       0.05249614       0.07234228      -0.13706768      -0.17218036      -1.70752931      -0.20234158
I       14.06253925      18.42833468       2.19887529       0.38214740      -0.29467579      -0.03030877       0.22871186      -1.95548461      -1.88013002
I        8.52230014      15.95883903       7.01658894      -0.17189041      -0.07167257      -0.00708659       0.33191658      -1.27810253       0.98970080
I       13.88752189      21.70132584       4.93245685      -0.01431663       0.05677133       0.07964603       0.51754685       0.80684199      -0.15459861
I        8.96715965      26.58036697       4.50780921      -0.10548087       0.38559853       0.49257783      -1.74520614      -0.25375404       0.33940681
I       13.76521543      22.52843538       0.67804265       0.29481216      -0.03430653      -0.11662518      -0.65547828      -0.60751865       1.25617081
I        8.80055692      26.35070156       0.36976254       0.04490801      -0.07372823       0.15665755       0.62233156       3.24723690      -1.57982089
I       12.80935648      25.54212178       6.52148409      -0.20480721      -0.03031279       0.04529408       0.34020777      -1.51688029      -0.13180930
I       10.07126104      23.17336319       3.00640958      -0.20630699       0.07912289      -0.14569920       1.54539825       1.58754235      -0.06049740
Cs       1.58624599      16.00539732      10.74199445      -0.13179665      -0.01047045       0.07748726      -2.08025199      -0.66631399       0.10907808
Cs       5.30675344      18.53510014      15.24915564       0.09302610      -0.11207798       0.00594041       0.52132824      -2.19432334       1.49563470
Cs       1.23565529      23.39971516       6.83466841      -0.02670430      -0.05235582      -0.01198500      -0.71820669      -0.99204833      -0.92641131
Cs       5.77160497      25.43615127      11.21149828      -0.10179031      -0.02960865      -0.11814915       0.85981611      -1.03160217      -1.09743498
Cs       8.94038455      15.54964880      10.95612123      -0.01778326       0.05374075       0.03601313      -0.33238163      -0.58341959      -0.12849987
Cs      13.10969294      18.19814976      15.15831415       0.00380799       0.07964724       0.02547193      -0.40049471      -1.82307362      -1.94368522
Cs       9.61454637      22.91067909       6.75966322       0.08820573       0.02919053       0.02245497      -3.31038187       0.49870839      -0.30824930
Cs      12.60959522      25.75289241      11.14519816       0.08476473       0.03395539       0.00588435      -0.90683858      -1.66497216      -1.72619850
Pb       2.68732697      27.87049928      15.17462785       0.02672576      -0.17773390      -0.09288997      -0.10359665       0.52971750      -1.85113060
Pb       6.63424487      27.68443160      15.27734087       0.10522308      -0.00367590      -0.23130447       0.93504028      -0.65558502       0.37592171
Pb       3.98700713      20.85621420      11.09836292       0.21676970      -0.15148889      -0.07046278      -1.41052163      -2.53707146       1.76416643
Pb       0.19284941      20.94644990      10.97429769      -0.38646805      -0.11179783       0.22026519       0.39939175       0.94770341       1.88423300
Pb      10.64845709      28.02546541      15.46096814      -0.03129094      -0.18082154      -0.19651434       1.00913058      -2.21585954      -4.95900202
Pb      14.51314781      28.00440096      15.46477155      -0.24602116       0.09194897      -0.19830953      -0.40320664       1.76266098      -1.93723902
Pb      11.82319077      20.60574359      10.94838559      -0.20362175      -0.08621322       0.27565300      -0.59092302      -0.66995674      -3.30522160
Pb       7.90473708      20.49371511      10.87404095       0.25836893      -0.02024562      -0.03794410       1.39823916       1.63789248      -0.80226424
I        4.62298676      14.69180206       8.86895887       0.16374820      -0.25818608      -0.18137319      -0.08340832      -0.74331842       0.71974795
I        2.04667616      19.88424595       8.70905714       0.06907440      -0.10660286      -0.14631000      -0.66425134       0.19671552       0.35674105
I        4.67961036      14.74935827      12.93402460      -0.05310935      -0.03289493       0.09186216      -1.76407894      -2.19987045       1.25474904
I        2.18245627      19.21119991      13.13768032      -0.28025692       0.14607030      -0.18618990      -0.71756388      -2.00778647      -0.53090141
I        5.87292150      18.09151376      10.87543036      -0.11894481      -0.01344855      -0.02879279      -0.60728085       1.16435088      -0.26894296
I        0.81062220      16.04996076      15.42320397       0.02024144       0.16087862      -0.00803505       0.42627674      -0.09333197      -0.02678515
I        6.38254469      21.80447617      13.17455849      -0.32195881       0.18318837       0.20086703       1.47145639       1.26834347       0.41763939
I        0.33618155      26.74119193      13.00870034       0.20257378       0.17578804      -0.02424687       0.41636247      -0.34550255      -0.15559501
I        5.92046866      21.84440335       8.67127582       0.04735013       0.19947647       0.04459272       0.00472859       0.41783305       0.62046077
I        0.71364402      26.43046617       8.81920244       0.16105155       0.06600784       0.13635575       1.72500614      -0.06572826       1.70379033
I        4.49378484      25.17351821      14.78065475       0.06422532       0.16820564       0.13440450       1.21640095      -1.29712766      -1.01958626
I        2.21585604      23.46863311      11.37685453       0.02178807       0.03174967       0.01486374       0.29296011       0.52991715       0.28145092
I       12.53271833      14.68236639       9.30039743      -0.09110881      -0.04278924      -0.13813384       0.17975152      -1.08314498       1.18254999
I        9.89953394      19.48294356       8.57366078       0.19197853      -0.02715343      -0.06901377       1.32783040       0.75727614      -1.08477987
I       12.22525391      15.35792021      13.31362544       0.12037010      -0.09142208       0.11015054      -2.27595027       0.95684303       0.40472714
I        9.79704959      18.89700203      12.98176591       0.05249614       0.07234228      -0.13706768      -0.17218036      -1.70752931      -0.20234158
I       13.92254864      18.35714320      10.67586609       0.38214740      -0.29467579      -0.03030877       0.22871186      -1.95548461      -1.88013002
I        8.38230953      15.88764755      15.49357974      -0.17189041      -0.07167257      -0.00708659       0.33191658      -1.27810253       0.98970080
I       13.74753128      21.63013436      13.40944765      -0.01431663       0.05677133       0.07964603       0.51754685       0.80684199      -0.15459861
I        8.82716904      26.50917549      12.98480001      -0.10548087       0.38559853       0.49257783      -1.74520614      -0.25375404       0.33940681
I       13.62522482      22.45724390       9.15503345       0.29481216      -0.03430653      -0.11662518      -0.65547828      -0.60751865       1.25617081
I        8.66056631      26.27951008       8.84675334       0.04490801      -0.07372823       0.15665755       0.62233156       3.24723690      -1.57982089
I       12.66936587      25.47093030      14.99847489      -0.20480721      -0.03031279       0.04529408       0.34020777      -1.51688029      -0.13180930
I        9.93127043      23.10217171      11.48340038      -0.20630699       0.07912289      -0.14569920       1.54539825       1.58754235      -0.06049740
Cs      17.35290967       1.61059799       2.18351939      -0.13179665      -0.01047045       0.07748726      -2.08025199      -0.66631399       0.10907808
Cs      21.07341712       4.14030081       6.69068058       0.09302610      -0.11207798       0.00594041       0.52132824      -2.19432334       1.49563470
Cs      16.72233775       8.86253287      15.23017495      -0.02670430      -0.05235582      -0.01198500      -0.71820669      -0.99204833      -0.92641131
Cs      21.53826865      11.04135194       2.65302322      -0.10179031      -0.02960865      -0.11814915       0.85981611      -1.03160217      -1.09743498
Cs      24.70704823       1.15484947       2.39764617      -0.01778326       0.05374075       0.03601313      -0.33238163      -0.58341959      -0.12849987
Cs      28.87635662       3.80335043       6.59983909       0.00380799       0.07964724       0.02547193      -0.40049471      -1.82307362      -1.94368522
Cs      25.10122883       8.37349680      15.15516976       0.08820573       0.02919053       0.02245497      -3.31038187       0.49870839      -0.30824930
Cs      28.37625890      11.35809308       2.58672310       0.08476473       0.03395539       0.00588435      -0.90683858      -1.66497216      -1.72619850
Pb      18.45399065      13.47569995       6.61615279       0.02672576      -0.17773390      -0.09288997      -0.10359665       0.52971750      -1.85113060
Pb      22.40090855      13.28963227       6.71886581       0.10522308      -0.00367590      -0.23130447       0.93504028      -0.65558502       0.37592171
Pb      19.75367081       6.46141487       2.53988786       0.21676970      -0.15148889      -0.07046278      -1.41052163      -2.53707146       1.76416643
Pb      15.95951309       6.55165057       2.41582263      -0.38646805      -0.11179783       0.22026519       0.39939175       0.94770341       1.88423300
Pb      26.41512077      13.63066608       6.90249308      -0.03129094      -0.18082154      -0.19651434       1.00913058      -2.21585954      -4.95900202
Pb      30.27981149      13.60960163       6.90629649      -0.24602116       0.09194897      -0.19830953      -0.40320664       1.76266098      -1.93723902
Pb      27.58985445       6.21094426       2.38991053      -0.20362175      -0.08621322       0.27565300      -0.59092302      -0.66995674      -3.30522160
Pb      23.67140076       6.09891578       2.31556589       0.25836893      -0.02024562      -0.03794410       1.39823916       1.63789248      -0.80226424
I       20.38965044       0.29700273       0.31048381       0.16374820      -0.25818608      -0.18137319      -0.08340832      -0.74331842       0.71974795
I       17.81333984       5.48944662       0.15058208       0.06907440      -0.10660286      -0.14631000      -0.66425134       0.19671552       0.35674105
I       20.44627404       0.35455894       4.37554954      -0.05310935      -0.03289493       0.09186216      -1.76407894      -2.19987045       1.25474904
I       17.94911995       4.81640058       4.57920526      -0.28025692       0.14607030      -0.18618990      -0.71756388      -2.00778647      -0.53090141
I       21.63958518       3.69671443       2.31695530      -0.11894481      -0.01344855      -0.02879279      -0.60728085       1.16435088      -0.26894296
I       16.57728588       1.65516143       6.86472891       0.02024144       0.16087862      -0.00803505       0.42627674      -0.09333197      -0.02678515
I       22.14920837       7.40967684       4.61608343      -0.32195881       0.18318837       0.20086703       1.47145639       1.26834347       0.41763939
I       16.10284523      12.34639260       4.45022528       0.20257378       0.17578804      -0.02424687       0.41636247      -0.34550255      -0.15559501
I       21.40715112       7.30722106      17.06678236       0.04735013       0.19947647       0.04459272       0.00472859       0.41783305       0.62046077
I       16.48030770      12.03566684       0.26072738       0.16105155       0.06600784       0.13635575       1.72500614      -0.06572826       1.70379033
I       20.26044852      10.77871888       6.22217969       0.06422532       0.16820564       0.13440450       1.21640095      -1.29712766      -1.01958626
I       17.98251972       9.07383378       2.81837947       0.02178807       0.03174967       0.01486374       0.29296011       0.52991715       0.28145092
I       28.29938201       0.28756706       0.74192237      -0.09110881      -0.04278924      -0.13813384       0.17975152      -1.08314498       1.18254999
I       25.38621640       4.94576127      16.96916732       0.19197853      -0.02715343      -0.06901377       1.32783040       0.75727614      -1.08477987