320
Lattice="35.78794042575779 -0.37839846603646177 -0.24217113649280456 0.2257959835333163 21.00955516298944 -0.015306901360210465 0.11054213265190213 0.01896394099226511 19.312856914076352" Properties=species:S:1:pos:R:3:forces:R:3:momenta:R:3 energy=-989.3899303450507 stress="0.0 0.0 0.0 0.0 0.0 0.0 0.0 0.0 0.0" pbc="T T T"
Cs       7.19671038       3.96008390       5.88838765       0.02961291      -0.10763683       0.06090309       0.26060028       1.24139165      -0.46036235
Cs      13.70501919      12.34203860       3.52881107      -0.00507230       0.25269530       0.03858315      -1.61468199       0.20215168      -1.13857992
Cs       4.47349355       9.14372170       5.96009349       0.03753315       0.01868439       0.01666538       0.25911746       0.09985328       1.30789231
Cs      16.18582316       7.28056174       3.62544278       0.11413116      -0.02917414       0.05263148       0.48986576       0.03612376       0.72989585
Cs       7.56342228       3.74156080      10.85642606      -0.22370105       0.27482582      -0.14751783       1.43841482       1.42204141       0.04428828
Cs      13.57646557      12.43853899       8.46789581       0.16427867       0.02918101      -0.05329611       0.13056863      -1.38879820       1.30224965
Cs       4.69502853       9.09884204      10.84050686      -0.06252675      -0.02151916      -0.02722697      -0.08347567      -1.76921800      -2.17309163
Cs      16.25303929       7.26844608       8.49146350       0.04809084      -0.05103647      -0.04762449      -1.41788545       3.65615838      -3.15501128
Pb       2.43133154       4.74062490       3.75706546      -0.32210424      -0.07712701      -0.04921306       0.80976384       1.33366257      -2.99936573
Pb      18.52305639      11.69052805       5.99154469      -0.10313924      -0.10644001       0.27026424       0.50024093       1.77523624       1.04679363
Pb       9.23075770       9.84923975       3.52493311       0.25932511       0.27148399      -0.06023291      -2.03487310       1.33829868       2.89309656
Pb      11.49926567       6.47716351       5.92132601      -0.08306594      -0.07878216       0.03619896      -3.79951334      -1.48959581       1.45883187
Pb       2.46189141       4.73295873       8.52729286       0.19262146       0.17364611       0.00660963       1.08742168       0.22668019      -1.85776348
Pb      18.35583899      11.58443717      10.79501715      -0.20334337      -0.03035710       0.00514069       0.43595603      -1.15689488       0.97293002
Pb       9.38845394      10.18294018       8.17164978      -0.12644784      -0.18599689       0.42296059      -1.12796528       2.15762015      -0.87578957
Pb      11.52659892       6.73739147      10.65031445       0.07504007      -0.03927365       0.52265507      -1.21680678      -0.28852153       0.98212400
I        1.16625931       6.56657035       6.25107222       0.10555667      -0.02238017      -0.23867520       1.29259462      -1.61745098      -0.02677813
I        1.58096865       9.81415486       3.63679543      -0.18298692       0.27058753      -0.12986778       1.13191179       1.92580338       1.31286087
I       10.52057344      11.82094080       5.84796287       0.11890652       0.19585977      -0.05227827       0.23356269      -2.31717812       0.56346342
I       10.32357982       4.54000161       3.54752559       0.01468693       0.12108205      -0.09685224      -4.08957671       1.39335670      -0.64069787
I       17.25306167       3.31829056       3.64946847      -0.00585468      -0.10248661       0.08683878       1.97250969       0.88045178       1.49402884
I        3.55958149      13.10234891       6.17430078      -0.00410275      -0.03937756      -0.25008762      -0.93703285      -1.22719436       0.96829658
I       12.52153113       8.44548627       3.62375660      -0.15370475       0.27475051       0.07627168      -1.72407983       1.48344627      -1.63882863
I        8.43274344       8.06452989       5.95477393      -0.15361189      -0.26883735      -0.00705696      -0.82758029      -0.22932070       1.55276183
I        5.01489679       6.19793864       3.43846599       0.42492462       0.10608451       0.06495880      -0.14646581      -0.85567057       0.08833871
I       15.89632440      10.21462504       6.05513620      -0.45416684      -0.03532130      -0.02474849      -0.19464116       0.55872331       0.46469452
I        6.54808445      11.35817682       3.54578334       0.09790373       0.01675707      -0.00686993       1.26309634      -0.41386036       0.93403612
I       14.18550877       5.07357748       5.89550849       0.05382020      -0.14136024       0.09691067      -0.09287435      -1.17082728       0.02016032
I        1.32344818       6.50742667      11.02322099       0.01179373       0.09998296      -0.13483429       0.84294326       1.06825320       0.74757555
I        1.78585711       9.94718883       8.56565755      -0.20377785      -0.08092858      -0.16531508      -0.51517945      -1.86725688       0.11552256
I       10.60708706      11.86895514      10.73978720      -0.01492512      -0.01155483      -0.15164272       1.48969047       0.99423211      -0.37309072
I       10.43524606       4.67973197       8.44666869      -0.02262876       0.02983211      -0.08986000      -1.03501488       0.75451231       1.97975253
I       17.42097369       3.23719853       8.32253501      -0.17586958       0.01202574       0.12573053       0.01989535       1.39744268      -2.51898642
I        3.60270350      13.30112003      10.96782407       0.07699598      -0.30104789      -0.07195129       2.01480232       0.04308097      -1.08176474
I       12.41518126       8.56416238       8.19668314       0.11095590       0.11584498       0.00358327       0.60254509       0.59164019      -0.66679548
I        8.43346878       8.03968174      10.64659558       0.10315673       0.00292664      -0.03476964       0.23885176       0.62109359       0.44422709
I        5.28181970       6.29059965       8.16574831      -0.22775870      -0.31104428       0.25153319       1.10851523       1.11210150       0.74642786
I       15.56781141      10.15465704      11.02117406       0.04699836       0.10178209      -0.16218505      -1.23597487      -1.44183148       0.27294164
I        6.59446050      11.50548649       8.44279185       0.08300122       0.01561282      -0.08227441      -1.12716488      -0.58106810       0.72517642
I       14.20142942       5.09406865      10.89532777      -0.04173359      -0.10623269      -0.13769282       1.33838773      -0.18857162       0.24314863
Cs       7.49808086       3.97413854      15.56947847      -0.08963079       0.05605344      -0.01008256      -0.14805797       0.21845226       2.03505299
Cs      13.53412313      12.97409304      13.02451224       0.09861851      -0.23963613       0.10753770       1.27065796       1.84763544       1.40335855
Cs       4.56422314       9.05142588      15.58880148       0.19285924       0.08668140      -0.04236600      -1.51287509       1.51200231      -1.69159926
Cs      16.30844713       7.07228991      13.20661396       0.03321834       0.11084877       0.11902733       1.30188223      -0.52697398       0.67082083
Cs       7.37971404       3.89298887       1.01177738      -0.07457637       0.00436284       0.07218433      -1.17847742       0.44900299      -0.66456161
Cs      13.73267874      12.60600933      17.91369662       0.05957097      -0.12432098       0.12463865      -0.22741883      -0.43762981       0.01308271
Cs       4.55042831       9.13794525       0.94043239       0.01293197       0.04854927      -0.00076255       0.74839991       1.73516062      -0.32067084
Cs      16.12419379       7.31052505      18.18444991       0.09247399      -0.00506025      -0.37896527       2.90028129      -3.14928047       0.65161661
Pb       2.41378037       4.57392826      13.29854239       0.55027729       0.54177543       0.14451671       1.53754191       2.02173412      -0.49110008
Pb      18.34436909      11.61586812      15.59530905      -0.08111519       0.09272286      -0.04022028      -0.45279964       0.02492225      -2.34646071
Pb       9.36684383       9.98627304      13.01478635       0.39844788      -0.01774895       0.16768541      -1.19434030      -1.50071161       1.20892044
Pb      11.57458362       6.68250053      15.65674436       0.24218065      -0.08368968      -0.14578026      -1.63726834       0.49179554       0.37325380
Pb       2.50891171       4.76803781      18.07607067       0.04738261       0.10951893       0.12302570      -2.59787378       0.75911023       0.36894818
Pb      18.42188431      11.59973620       1.25655722      -0.02002671       0.08664814      -0.24743358      -0.49518484       0.27551783       2.35487322
Pb       9.67815895      10.09469728      17.92539376      -0.39365156       0.06655960      -0.11398581       0.97428223       1.62620774       0.76539275
Pb      11.40590971       6.60423408       1.29536433       0.34027118      -0.25204263      -0.27594492       2.53968228       0.10589240       1.35324208
I        1.63304576       6.79914176      15.73621106      -0.17536047      -0.25680165      -0.11012013       0.27754821      -0.71137022      -0.85074282
I        1.68948194       9.96818573      13.33722110      -0.09870784       0.03492727      -0.11974300       1.02532141      -1.20346630      -0.66983043
I       10.65251868      11.90320870      15.57549867      -0.13547312      -0.08475254      -0.05465426      -0.55186895       1.55266836       0.37412997
I       10.46263665       4.95903308      13.32880688      -0.04728633      -0.09586012      -0.35956701      -0.84159105      -0.03870059      -2.63833904
I       17.30239544       3.02699936      13.31932707       0.03107604       0.36952380      -0.05635440      -0.52575817      -0.47249368       3.68835502
I        3.70897926      13.24753906      15.68258025       0.08578817      -0.19790047       0.12779737      -0.88239573      -0.56176428       1.11300147
I       12.58232263       8.74028103      13.30184088      -0.21175908      -0.28063107      -0.25197993       1.68689336       0.56037598      -0.74285297
I        8.47427086       8.10368710      15.38401167       0.13236157      -0.09647731       0.45274052       0.18861632      -0.13746898       1.15677969
I        5.29024047       6.14318579      12.98957718      -0.25622621      -0.22934956       0.17041814      -1.10204220       1.12103823       0.39312513
I       15.49579416      10.39969773      15.26849609       0.10473453      -0.15667349       0.25240556      -1.28075544      -2.30064546       1.68212748
I        6.75894881      11.45086119      13.06483244      -0.25451454       0.21750046       0.10038158      -0.29190817      -1.54829423       1.59665004
I       14.21757675       4.78307264      15.53901823      -0.11064349       0.43189499       0.08702448      -2.40529952       2.15481281       0.44419302
I        1.29422409       6.51576504       1.19699571       0.02145043       0.08051160       0.30832596       1.93256135      -0.44356070       2.25767697
I        1.56538334      10.05584452      18.10358273      -0.00825960       0.17869367       0.18461102       1.84011867      -0.60380821      -0.61904668
I       10.62413758      11.79803386       1.18707807      -0.10857841      -0.07988933      -0.11899828      -0.67821708       1.83919390      -1.31725888
I       10.55691015       4.78654837      18.08948099      -0.08721363      -0.04811866      -0.04716160       2.08902562      -2.05408079       0.19040614
I       17.38445683       3.17716817      18.09564624       0.07954870       0.04461314      -0.08494396       0.92390803      -0.91174788      -0.06506387
I        3.51148487      13.13895651       1.31672105       0.22816400      -0.14292675      -0.00679394      -1.08658871      -0.85067887      -0.55757413
I       12.68536779       8.59395330      18.08143940      -0.19946885       0.06408109       0.19129665      -0.04886089      -0.04182822      -1.38153197
I        8.47697565       8.00013859       1.21036555      -0.22124656      -0.08571692      -0.26311306       1.11381476      -0.07966744       0.29082800
I        5.30722260       6.14272661      17.92889601       0.11199120       0.03699158       0.09922022      -1.98040851      -2.16754094       0.43884202
I       15.67798123      10.18095418       1.23255626      -0.10034185       0.11750707      -0.08783323      -0.03681878      -3.39880306       1.85187124
I        6.83962282      11.65112966      17.73013486       0.22226109      -0.29382888       0.21573320      -0.80476564      -0.50418913       0.02115611
I       14.23816803       5.12694660       1.26341165      -0.24626634      -0.05255911      -0.05432256      -1.53383098       0.82817859       0.76014929
Cs       7.60229125      14.35919754       6.02020076      -0.00043179      -0.03736131      -0.04563146      -0.22141777       0.86049557      -0.83750488
Cs      13.49327314       1.95721315       3.38310336      -0.03118530       0.14000395       0.07154372       2.15439133       2.06367585      -0.55669631
Cs       4.72615253      19.62083231       5.77388251       0.03778307      -0.03137579       0.17876550       1.79840501      -0.91056923      -0.09262806
Cs      16.31268619      17.80973091       3.63782735       0.17714728       0.00201109      -0.22723655      -1.08702179      -0.54947301      -0.07730399
Cs       7.71649034      14.54266720      10.71450760      -0.12452102      -0.12093840       0.11601860      -1.35821528       0.44073809       0.39981391
Cs      13.57503995       2.02488367       8.37132864      -0.00563058       0.06391204       0.03744408       0.34797711       0.14066033       2.25026392
Cs       4.80819853      19.44472038      10.72919081      -0.02321927       0.12320930       0.09876052      -0.20981934      -1.54396934      -1.11915345
Cs      16.51818095      17.92249276       8.23476207       0.07612592       0.04514882       0.14987667      -1.18295032       0.08241161       1.45388649
Pb       2.64172970      15.16633598       3.70162187       0.19370142      -0.13796336       0.28809938      -0.96363466       0.01549827       1.43017736
Pb      18.33501695       1.26638539       5.98417238      -0.26619044      -0.17940049      -0.10977673      -1.43519391      -0.42310010       3.09119372
Pb       9.69432661      20.48736747       3.48517605       0.00496484      -0.07236201      -0.06401052       0.79053781       2.04276141      -0.81068041
Pb      11.94937084      16.94567791       5.95910651      -0.26544758       0.16360136       0.08333753      -0.83585479       2.55125573       2.78066890
Pb       2.84784379      15.20513861       8.46905997      -0.48809523      -0.26277848       0.13358355       1.58069612       1.25183201       0.33198908
Pb      18.25891863       1.25756643      10.89037012       0.17242059      -0.31464514      -0.11748259       2.44037841       0.85915074      -1.07396078
Pb       9.56490760      20.42690332       8.20968672       0.05490443       0.10079291       0.09173893       0.13320644       2.54350340      -1.56383080
Pb      11.78729589      17.17728071      10.69623736       0.08808302       0.00382318      -0.03811383       1.54295830       0.98232335      -0.55749906
I        1.62800978      17.01412018       6.14180722      -0.02209095       0.18902574      -0.13963877       1.40909376      -0.39611196       0.67868383
I        1.59821872      20.28638958       3.58101005       0.00314579       0.26503073      -0.11660313       0.06000070       0.92959624      -1.05593297
I       10.44336777       1.36835242       5.88156088       0.00972621       0.06541444       0.11140781       1.52792150       2.57386155      -0.14858120
I       10.72507783      15.33655295       3.51643734      -0.05207480      -0.25397060      -0.08682498       0.54741306      -1.10341103       1.00669637
I       17.42162237      13.66661771       3.61880060       0.03184780      -0.05569111      -0.03569652      -2.43439871       0.19999830      -1.72590798
I        3.47534480       2.66822041       6.26801501      -0.16736399       0.02842751      -0.33439743      -2.35664263      -0.47154416       0.14626757
I       12.81302589      19.05561997       3.64327349      -0.15889618      -0.03272434      -0.04264118       1.42566791       1.82498596       0.53416760
I        8.75493095      18.47064599       5.82602198      -0.04466420      -0.17948605       0.11869833       0.01113656       0.57538529      -2.09349080
I        5.47147485      16.36811388       3.67544235       0.10121983       0.27043906      -0.09859644       0.12612887      -0.89050939      -0.03199654
I       15.68814832      20.84996153       5.77163999       0.29825495       0.13184388       0.16514629       1.66658312       0.73052809      -0.86244421
I        6.66823968       0.78824734       3.46058700      -0.03569157       0.16998622       0.06526352      -1.29486421      -1.73209231       3.85799979
I       14.63803596      15.56617863       6.06479120      -0.09769450      -0.27991737      -0.08434898      -0.03060261       1.65425218       0.80315595
I        1.60363516      16.98867989      10.82707588       0.01400548       0.10047393       0.21402461      -2.56406404      -2.45304594       0.76901019
I        1.74277472      20.51177660       8.66081601       0.00424205      -0.05462205      -0.27769566       1.35707210       1.58391110       1.42914173
I       10.32071999       1.43027103      10.77605204       0.09511523      -0.19792704      -0.02091173       0.36190441       0.41551035      -1.33428859
I       10.78416610      15.05980251       8.48572277      -0.05660103       0.18973431      -0.28418922      -0.60014646       0.87933561      -0.98380015
I       17.29807752      13.50876108       8.40555606       0.27898476       0.27879373      -0.04289855       0.88155025      -1.34055788       0.57895880
I        3.65861735       2.85574279      10.87580764      -0.24746529      -0.35464238       0.03073999       1.22633881      -2.04478745       0.82415416
I       12.69849066      19.15651183       8.23395965       0.01942769       0.03179479       0.08304092      -0.65407848      -0.40788544       3.38104101
I        8.68956572      18.41127366      10.62350274      -0.08321211       0.02111800       0.09808772      -0.87200881      -1.51673291       1.72700283
I        5.49783219      16.54372922       8.38895150       0.26885744       0.25975352      -0.11253238       1.49701923      -0.68327196      -1.25352097
I       15.81675030      20.71533078      10.83304969      -0.01249820       0.02920596       0.00482256       1.18113023       1.47821009       3.40417981
I        6.57393285       0.76451605       8.42504106      -0.03739523       0.10060224      -0.12888898      -0.90965494      -1.02884251      -0.52010374
I       14.52984219      15.73151327      10.68934593      -0.01167308      -0.08542027      -0.10265823      -0.19656883       0.61409862       1.89064620
Cs       7.48636324      14.64947733      15.46618469       0.20347955      -0.15739024       0.10490058      -0.12374231       0.40055209       0.33446013
Cs      13.34652566       1.98216749      13.27829987       0.03828080       0.08695247      -0.22093318      -0.87195774       3.29929231       3.74348603
Cs       4.94896598      19.53435137      15.53134817      -0.01209747       0.11132550       0.16541174       1.73788261       1.64369607       2.35422708
Cs      16.52524421      17.43289371      13.33185061       0.00022935       0.22450842      -0.15728780      -0.67343327      -1.08681266      -1.49118672
Cs       7.54895947      14.31342207       1.13476739       0.09666001      -0.03173331      -0.00321369      -0.06174188      -1.03578162      -1.09627078
Cs      13.77425540       2.10895106      17.94221893      -0.18125519      -0.00929950       0.05749873       1.16080783      -1.18282809      -0.43325913
Cs       4.82262661      19.59831638       1.12836303       0.03547626       0.09598783       0.08551226       0.74049709      -1.27267937       1.31207718
Cs      16.61830211      17.95381874      17.86310689      -0.09068213      -0.01329511       0.12565402       1.14344744      -0.89137960       0.03586087
Pb       2.69037731      15.07231720      13.39304524      -0.31082350       0.21791171      -0.26557513      -0.62572408       0.12938140      -0.95465075
Pb      18.35178278       1.23568151      15.64478188      -0.11266546      -0.41797635      -0.00872624       0.12786297       0.48171382      -0.92829696
Pb       9.53058504      20.54473835      13.12657212      -0.04966360       0.03810127      -0.12447275       0.41409248       0.63929781       0.83623946
Pb      11.72534194      17.24300980      15.51301065       0.34561218      -0.34086485       0.11376189      -1.42904018      -3.00095155       1.00780062
Pb       2.91423985      15.11479753      18.26451836      -0.27805344       0.16946297      -0.21016902       2.03779472       2.04240352      -1.24933376
Pb      18.20714791       1.19967465       1.31315647      -0.13693083       0.05362405       0.05522164       0.24471806      -1.46549037      -1.20530195
Pb       9.72465163      20.26370716      17.91924984      -0.07621116       0.47675999       0.03673333       1.97478790       0.41740783       1.42539647
Pb      11.87512770      17.09550139       1.08165254       0.13717584      -0.04488525      -0.01771195      -1.64671355      -0.99498176       1.01364891
I        1.65807845      16.99526082      15.82252273       0.08108968       0.03565622       0.02084303      -0.97499460      -0.03436773       1.45475427
I        1.80885140      20.60360888      13.36849537       0.16547643      -0.32141890      -0.02516543       0.80807785       0.16750965       1.36123600
I       10.45461800       1.35431807      15.41098709      -0.01243414      -0.12002431       0.29544399       0.86564283      -1.31981304      -0.15434992
I       10.81647854      15.27177455      13.05868253      -0.24661653       0.02507428       0.14535248      -0.41940625      -0.52100872       0.57820931
I       17.39697895      13.56794489      13.20328710       0.12195428       0.30677898      -0.03997483      -0.39400306      -0.60142865       1.28708889
I        3.51948731       2.85270863      15.88212636       0.07329301      -0.33497259      -0.27534045      -1.35025530      -0.75124585      -0.67642542
I       12.73628201      19.14407015      13.12148670      -0.13811060       0.12258833      -0.00499517       2.30451216      -1.55329019      -1.50840920
I        8.62440925      18.46918692      15.57092362      -0.07882410      -0.26712196      -0.18625995      -0.69687270       0.90878796       2.15278898
I        5.32927027      16.57702855      13.25017812       0.37853114       0.16747660      -0.10930766       0.77657445       0.94721537      -0.85435961
I       15.75935882      20.78302231      15.31153576       0.25891391       0.05530619       0.20232827       1.49469019       0.50999753       1.03676132
I        6.50394413       0.98745847      13.22629117       0.18241212      -0.20674790      -0.01569066       1.38851478      -2.05200580       0.13846238
I       14.40511217      15.49674943      15.84433654      -0.13966262       0.25415853      -0.18982007       1.57781175      -1.21117121       1.54861427
I        1.73196418      17.03831743       1.34119902      -0.10247037       0.08536516      -0.25668257      -1.32883710       3.20109584      -0.00160026
I        2.24558268      20.59431072      17.89528099      -0.34712407      -0.04281565       0.32303135      -0.07293159      -1.16543271       0.28382634
I       10.47694853       1.13340911       0.89393808       0.12985623       0.21798460       0.17647867      -1.58912352       0.72254281      -1.44803568
I       10.91569915      15.28263493      18.02276378      -0.30804152       0.00183264      -0.01831295      -0.73283215      -0.55951681      -0.82885202
I       17.60200530      13.69232802      18.07078155      -0.14740261      -0.15829957       0.08138654      -1.07434894       0.89667553       2.51491883
I        3.40276800       2.87536644       1.39028084      -0.07040253      -0.25438978      -0.12980806       1.67962628       0.03130487       0.11557382
I       12.81842389      19.13620528      17.90520882       0.01544777       0.00637558      -0.01203498       0.02291250       1.55637749      -1.67884201
I        8.74977078      18.43636609       1.10379260      -0.09291196      -0.15277220      -0.00309864       0.31010295       0.01191591       0.77404190
I        5.55860943      16.67919202      18.34545927       0.12711862      -0.01765740      -0.23380282       1.42877551      -2.34132458       1.07693907
I       15.65370710      20.76640121       1.08806338       0.08729512      -0.05202090      -0.00641810      -1.06058086      -0.32156441      -0.49981702
I        6.87478006       0.99121314      18.04528566      -0.16838227      -0.19669116      -0.05362282       0.46156582      -0.09536697       0.82972660
I       14.59717016      15.55883626       0.97566968      -0.17280115      -0.00874506       0.17032703      -2.10102000      -0.48844637      -0.04690121
Cs      25.06974996       3.63698193       5.87580869       0.13285462       0.06122406      -0.05425325       0.17242169       0.34327040       3.01781744
Cs      31.40015465      12.43913314       3.54565329      -0.00658913      -0.13547363       0.08758968      -2.14075725       0.04876971       0.46894168
Cs      22.48404615       9.03058139       6.09254206      -0.02655624      -0.18777972      -0.10897302       2.04152807      -1.43846759      -0.49371683
Cs      33.94596654       7.03132342       3.39326660       0.22031876      -0.00243977       0.05236708       2.07433162       1.46205222       0.64390029
Cs      25.32126342       3.78423808      10.64434354      -0.06330509      -0.20212993       0.18852475      -0.45181305      -0.77341574      -0.17063727
Cs      31.75724332      12.36856232       8.60272817      -0.31268776      -0.07208465      -0.26634701       0.17577522       2.07882422       0.25145721
Cs      22.64079728       8.87427859      10.82107710      -0.11924341      -0.03410768       0.15537068      -1.44651141      -0.70069999       2.78583713
Cs      34.15527713       6.89224325       8.07683621       0.06712159       0.11948229       0.27327145      -1.22916245      -0.28612390      -2.39454445
Pb      20.32636848       4.68983753       3.54582698      -0.06150464      -0.05315448      -0.03099092       0.22135163       1.92911608       1.21731391
Pb       0.44520330      11.68210085       6.08131618       0.04905562      -0.07628447       0.18683863      -0.28461716       1.71896045      -0.61887496
Pb      27.42764561       9.55436314       3.35473595       0.20932414      -0.05004315       0.16238322      -0.08845944       3.77707423      -1.00452809
Pb      29.46930837       6.35393844       5.81359590       0.10098464      -0.25358706      -0.12451770      -1.25573580       0.51467327       1.21356275
Pb      20.50966396       4.42076061       8.35328182      -0.04952212       0.17561456       0.08938425       3.00334119      -0.75203259      -3.23710752
Pb       0.50677083      11.73363335      10.82279633       0.03868711       0.12487926      -0.00448749      -1.98745418       0.82929256      -0.09100283
Pb      27.16528383       9.61324461       8.13680342       0.40262345      -0.10724395       0.18051042      -0.19166471      -1.06625776       0.12066600
Pb      29.42455901       6.28284456      10.63104033      -0.20248787       0.23934177       0.29855079       3.74434582       0.80962607       1.16397946
I       19.42534310       6.41070430       5.96628361      -0.15785500       0.14728760       0.19963815      -0.24029085      -1.23673921       2.49450643
I       19.38638849       9.68312341       3.66914741       0.15222830       0.01128568      -0.20738385      -1.03366082      -0.26723668      -0.55405196
I       28.42564897      11.43650445       5.90940248       0.05823263       0.03100075      -0.06408008       0.09936969       0.01440205       1.61851119
I       28.26672830       4.33721906       3.36809319       0.18627235       0.30942409       0.20661382       2.19028657      -0.92195440       0.40063198
I       35.11409186       2.77658797       3.29437167       0.11021837      -0.03534939       0.10743324      -1.59041143       1.57615989       1.08477507
I       21.54084362      12.89228459       5.92737698       0.12174688       0.10065561      -0.10598518      -1.73638929       2.26217651      -0.82163865
I       30.62807204       8.32820973       3.42579543      -0.39523938      -0.29319817      -0.00261857       0.93794322       1.07784003      -0.85126930
I       26.27289974       7.57561118       5.65311983       0.14174140      -0.05801437       0.20529129      -0.74844100       0.81078956      -0.07043073
I       22.99287256       6.17967092       3.39930898       0.24115526      -0.06520867       0.04138031       1.00166762       0.33002588      -1.10571474
I       33.43484975       9.89349235       5.98309026       0.11819999       0.21162034      -0.08157963       1.63241121       0.47176946       0.33892750
I       24.77276145      10.94809295       3.51052010      -0.37202194       0.20770493      -0.04356198      -3.93251401      -2.26456256      -0.08810154
I       32.18424725       4.65111864       6.00866551      -0.32197943       0.10936951      -0.21560783       0.86923506       0.14759740       1.11390102
I       19.41865967       6.36347722      10.72678521      -0.00972012      -0.03296096       0.14538900      -1.13367901      -0.83350785       0.41286997
I       19.37307261       9.63314542       8.51121732       0.12427468       0.13258215      -0.24550811      -2.54247231      -2.41573399       0.15909817