320
Lattice="35.78794042575779 -0.37839846603646177 -0.24217113649280456 0.2257959835333163 21.00955516298944 -0.015306901360210465 0.11054213265190213 0.01896394099226511 19.312856914076352" Properties=species:S:1:pos:R:3:forces:R:3:momenta:R:3 energy=-970.6371087470546 stress="0.0 0.0 0.0 0.0 0.0 0.0 0.0 0.0 0.0" pbc="T T T"
Cs       7.81017033       4.07892998       6.06339104      -0.24759072      -0.38477493       0.04076386      -0.67723804       0.27858811       1.98390706
Cs      13.62860895      11.95284954       3.61325958      -0.13754396       0.42330399      -0.15559619       0.85528008       0.20736506      -1.43155482
Cs       4.68294544       8.93396819       5.91462371       0.04642924      -0.13991626       0.19743462       5.45694565       2.42185788       3.46355247
Cs      16.61378755       6.98572618       3.64534358      -0.20808589      -0.08419187      -0.07337630      -0.06536087      -2.32438212      -2.04357432
Cs       7.45887324       3.67133014      10.44872724      -0.04069001      -0.30853163       0.21885530      -1.53170550       0.24471725      -0.14044607
Cs      13.43303864      12.30186446       8.20443918       0.01578571       0.21252897       0.23927496       3.06476056       2.14146852       1.76914819
Cs       4.91079531       8.81728697      10.91430461      -0.38380888       0.13293087      -0.24339603       2.86811448       0.92203498      -0.77573541
Cs      16.11218873       7.35791117       8.09977584       0.16895550      -0.21470540      -0.00941579       2.09476173      -1.68586678      -2.72334760
Pb       2.62001179       4.13438083       3.70858438       0.36284432       0.49711543      -0.44667024      -2.00639398       1.15666089       1.70181526
Pb      18.05194620      11.54053582       5.80981246       0.35027009      -0.33962881      -0.46300604       1.47356300       1.20998715      -0.89284755
Pb       9.28583039      10.09998077       3.90167044      -0.37436015      -0.84671856      -0.50041376      -4.98763282       5.90967907       2.27786973
Pb      11.15410098       6.22862770       6.28348024      -0.15897708       0.80334924       0.15336244       1.62464767       1.27568938      -1.50431023
Pb       2.58510398       4.32468964       8.21683564       0.36960712       0.26352785       0.75230718       4.27788680      -1.46438086      -9.27747168
Pb      18.41989525      11.30078440      10.42863273      -0.70218366      -0.03050193       0.94146860       1.56848668      -1.30414425       5.34026088
Pb       9.29035474       9.82065611       8.48873316      -0.55509000      -0.59136304       0.11791891      -0.57652910       3.03697021       4.54778629
Pb      11.79928426       6.43680421      11.17610570      -0.10639454       0.22590013      -0.78246275       1.39978153       1.31440464       9.18857539
I        1.76528939       6.16996821       6.10224267      -0.33521196       0.35243439      -0.50783034       2.20042757       1.76864432       0.98782134
I        2.10056876       9.82309424       3.73611054      -0.28034652      -0.47184081      -0.20557281      -1.43840746       3.26572848      -4.84419481
I       10.28020890      11.68379623       6.13319422       0.15751108       0.31844152       0.09058703      -1.83917918      -0.43127426      -3.97415890
I       10.61022267       4.43497750       3.87852444      -0.41818309      -0.31066091      -0.83795857      -1.00709084       1.77497350       4.39564993
I       17.44922573       2.79085363       3.33386434      -0.48891751       0.64782667       0.17681065      -2.75625006       1.17258771       2.57929450
I        3.13582499      12.97875612       6.21041443       0.32046841       0.35015311      -0.41465246      -0.64915992      -1.07409654       3.44601223
I       12.07540741       8.44485331       3.81496881       0.35306263      -0.01394640      -0.02107722      -1.21882001       2.90352475       0.65912953
I        8.00623647       7.58075462       5.96138982       0.37388686       0.68778534      -0.03545565       1.48188075       1.90042758      -0.08233923
I        5.35979986       5.49966215       3.44719858      -0.03935841       0.39275105      -0.02203896      -1.84155420       2.28447901       0.72515096
I       15.13465501      10.10916549       5.81496457       0.74014084       0.10063380      -0.03325421       2.50194040       0.67165080       0.78257190
I        6.41534693      11.34912401       3.61858933       0.12804853       0.15117180      -0.10874542      -2.43844494      -1.32686324      -2.14008904
I       13.67909359       5.00210442       6.29019101       1.03524204      -0.37292573      -0.56805425       3.22223116      -3.78141625       0.42902683
I        1.84486864       6.50506754      10.57099120      -0.25421155       0.13731521       0.14272240       1.22558067       4.66800444       0.75085180
I        1.44120508       9.72095675       8.16359668       0.37048366      -0.40619120       0.18342930      -2.93184851      -1.37297411       3.29212316
I       10.58041551      11.57644197      10.53549329       0.13726197       0.29935605       0.01449254       5.58922996       0.62686791      -2.23889425
I       10.53868813       4.50493365       8.67381086      -0.06654018      -0.06294492       0.14152946      -3.93885303      -1.94529836       3.89911529
I       17.40997123       3.24192542       7.87148331      -0.04851192      -0.08755422       0.16774250       3.75073908       0.47561389       0.72387382
I        3.66614524      13.04398733      10.23111902      -0.20388870      -0.10454348       0.33135779       0.59755845      -0.05250368      -1.69359005
I       12.23285825       8.46755854       8.35034866       0.11178801       0.10701502       0.07905525      -1.14069115      -3.12746215      -6.80398586
I        8.45642519       7.65600613      11.11124228       0.27174764      -0.01852261      -0.59811206      -1.46040125       1.31637274       3.15766685
I        5.37975478       5.86440622       8.57037645      -0.22129155      -0.01916252      -0.24316228       1.35014328       3.65195563       2.66336661
I       15.40437923      10.07954502      10.66136685       0.42524581       0.27476488      -0.13587385       4.37416385       4.33590565      -4.98998842
I        6.48352540      11.32988136       8.70964348       0.31516391      -0.14238464      -0.27623001      -1.79470895      -2.09333014      -4.35914354
I       14.54723859       5.10468949      10.37792335      -0.15987484      -0.29743418       0.27261222      -5.16265390      -1.55788109      -2.08881850
Cs       7.41182759       3.82293534      15.80054658       0.12702844      -0.25344792      -0.43611947      -1.97834388       1.58249843       0.97091266
Cs      14.17001025      12.69485259      13.26806608      -0.60468444      -0.22027123      -0.15349575      -1.05216114       2.68772665       0.88138851
Cs       4.80020681       8.68315567      15.17443389      -0.01697719       0.05531244       0.30076069      -0.16608906       2.64235357      -2.90054259
Cs      16.26252325       7.08021172      12.91532109       0.12191278       0.08843796       0.19668438       1.68099959       2.28530682      -1.65100744
Cs       7.52679529       3.58144067       1.01846083      -0.08342558       0.05579836       0.18494410       2.96171014       3.71218056       3.58221250
Cs      13.53927635      12.60712599      17.74956958       0.18031791      -0.20460033       0.17551408       0.82855815       1.91221661       0.02456704
Cs       4.85370405       9.16653327       0.94196450      -0.11747013      -0.48916057       0.14809893      -1.69481631       1.39154745      -1.26074184
Cs      16.03837883       7.43172328      17.78377332       0.07323128      -0.39575558       0.07888930       3.29792640      -2.13402392       4.38920026
Pb       2.69301662       4.79346196      13.00352063       0.25309696      -0.30170917       0.07789750      -6.34320987      -3.17481219       3.53161914
Pb      18.49968323      11.67012846      15.49662132      -0.64533609      -1.04711263      -0.16001654      -7.47787562      -1.76968181       3.27182140
Pb       9.41493345       9.85050266      12.94349108       0.21732264      -0.18410443       0.49697005       7.35370294       4.69998424      -5.60166798
Pb      11.64446783       6.57583374      15.19893746      -0.18353895      -0.16360069       0.36781132      -2.91666557      -3.41805588       0.33619914
Pb       2.55820656       4.21155316      18.23339945       0.46570414       0.17508731      -0.27520240       2.39460566      -0.54340172      -3.94903613
Pb      18.21426133      11.65230934       1.09606969       0.54978224      -0.43666870      -0.41851459      -0.91832537      -7.44688922      -0.92702734
Pb       9.46827500       9.67681659      18.25772660      -0.17096159      -0.25090081      -0.45147708       3.04571921       0.76643859       5.60823069
Pb      11.23385161       6.52147694       1.49556331       0.23729274       0.07146179      -0.62153451       1.83314404       0.79872891       3.09883376
I        1.93390281       6.37731453      15.76857339      -0.28439696      -0.08748916       0.07119711      -2.34791682      -0.41812917       4.78278395
I        1.40623379       9.62381034      13.17006133      -0.08432805       0.39581811       0.35461784      -6.72967783      -2.52436202      -0.43891999
I       10.34771995      11.37907161      15.71860405       0.39616296       0.21436591      -0.10599285       0.97117564      -2.56041599       1.85554278
I       10.78053671       4.22577945      12.75871887      -0.38214744      -0.01090143       0.57462759      -2.96431257      -4.71709687      -3.29914922
I       17.55727902       3.09892346      13.13033432      -0.42545734       0.04304154       0.13045378      -0.54251430       1.35006811      -3.21133477
I        3.44899061      12.93436478      15.39001004      -0.07027717      -0.48846655      -0.08606706       1.20621917       0.64120529       0.25258617
I       12.66669832       8.81148849      13.14587017       0.01163726      -0.24935524      -0.04942590      -0.47332952      -4.47101755       0.31735761
I        8.72457532       7.71136803      15.36858345      -0.21446707       0.21412342       0.13211772       1.27469954      -4.23319047       1.57058490
I        5.65036953       5.97400441      13.04098550      -0.12787613      -0.26876891       0.03040236       1.59748889      -0.44693261      -1.71001239
I       15.65741169      10.01690980      15.46641918       0.12174964       0.37398160       0.03862609      -2.50169568       0.24475188       1.37743583
I        6.77329172      11.18348897      12.94989808      -0.41687622       0.16291622      -0.01378165      -0.24534109       0.66267155       1.09947952
I       14.30887214       4.98966404      15.07814123       0.15376810      -0.07280484       0.32083402      -0.63392197      -1.06128362       1.52509549
I        1.46484330       6.11547233       1.09793725       0.11451261       0.10504584       0.20313863       1.50783196      -4.04466629      -3.00613925
I        2.17770720       9.79576122      18.06327732      -0.45684345       0.09458765      -0.36448598      -3.28441957       4.92642583       1.76834493
I       10.63567229      11.62503971       1.14533683      -0.27654035      -0.08883226       0.06140084      -1.21583949       0.28226183       2.73264582
I       10.19735252       5.14748018      17.90506684       0.32647149      -0.31423130      -0.02725573       2.41888555      -0.35661354      -0.09928092
I       17.78692895       3.41306899      17.53679205      -0.49537805      -0.31709523      -0.08619934      -2.29565604      -1.49485911       0.42814240
I        3.80564155      13.22274717       1.42127971      -0.05205501      -0.25991820      -0.12260941       0.47320446      -1.22302014      -0.26874217
I       12.30989580       8.36299310      17.73630173       0.18346671      -0.16682137       0.50813890      -5.79017888      -1.98629737       0.48484442
I        8.12892514       7.77661960       1.41629945       0.36547090       0.18709732       0.24326539       2.26290194       3.00089323      -4.28681386
I        5.46155962       5.54091231      18.07548486      -0.33668628       0.29193950       0.05719391      -1.36128053      -0.11939644      -3.17696151
I       15.67856582       9.83164256       1.15787170      -0.39448100       0.32233651       0.00000207      -0.88892437      -0.61873315       1.37641776
I        6.64050127      11.03167718      17.60145684      -0.07418485       0.19236567       0.30078956      -2.25989982      -2.48504191       6.51279743
I       14.01958258       5.02484120       1.17269920       0.01827580       0.04059661       0.05833143      -1.53260156      -2.29890919       0.67027476
Cs       7.22113582      14.02422458       5.86875937      -0.08317862       0.17022730       0.12825163      -1.18609496      -1.04662764       0.41316827
Cs      13.14111464       1.71484585       3.44979163       0.35936284       0.20187813      -0.13383044       2.45829615       0.66602129      -1.01172623
Cs       4.27314863      19.25100863       5.95178330       0.40903564       0.00400599      -0.14731549      -0.94063346      -1.14073750      -0.94685987
Cs      16.56749268      17.78522528       3.14020059      -0.13756411      -0.03397268       0.29045196       0.51750112       2.05583634       1.84348979
Cs       7.46569645      14.44331304      10.88855124       0.05755602      -0.25346831      -0.25425176       3.27723850      -4.05319298       1.41724213
Cs      13.76918273       1.84926086       8.07747822      -0.11761309      -0.08986275       0.28038386      -2.53491508      -1.72396038      -3.61330148
Cs       4.54614972      19.56642955      10.13676250       0.25422341      -0.20140947       0.60014648      -3.74874919       0.25023103      -5.54315975
Cs      16.24234093      17.32509982       8.13696942       0.25491438       0.57196520       0.04830892       4.44030866       4.22992766       1.28178380
Pb       2.57932890      15.19200231       3.54706486       0.25221990      -0.14625938       0.29221230       1.69725609      -1.73650054      -0.11356859
Pb      18.23582233       1.01433179       5.75741364       0.04456769      -0.33636398      -0.04968475       5.09834222       3.97486913      -0.10506872
Pb       9.19884023      20.19745066       2.91571247       0.21650037       0.75683339       0.84726777      -2.25282756      -3.98370508       2.65823654
Pb      11.62801545      16.93341872       5.82007767      -0.45930632       0.12918867      -0.04973963      -0.48650195      -2.80541687      -6.55639385
Pb       2.42391904      15.23303056       8.19210998       0.38668211      -0.04702658       0.35701667       4.18466508      -1.72459513      -4.97524914
Pb      18.28144479       1.25737066      10.55271898       0.11099156       0.13977211      -0.23054559      -3.92554936       9.77572929       0.63492252
Pb       9.54390190      19.96364550       7.93718254      -0.36345909       0.27781341      -0.12048983      -4.67254686      -0.96352036      -2.64253255
Pb      11.79054843      16.82826323      10.53131663      -0.23753322      -0.19214634       0.54626352       1.81342782       3.07499945       0.17311402
I        1.26316011      17.18118174       5.99208363       0.12253477      -0.18034149      -0.44868187       1.88843009       2.60749508       2.08001727
I        1.89670594      20.20653703       3.32776849      -0.52746743       0.40486160       0.17767142       0.97927005       1.00045364      -5.05708008
I       10.76398087       1.08669094       5.80839040      -0.70238720      -0.79322907      -0.09178809       2.08561118      -2.23779416       0.56062587
I       10.53929014      14.99832806       3.49388678      -0.10001326      -0.20661743      -0.04213510      -5.01654359      -0.01084452      -3.54040167
I       17.42053498      13.58006020       3.38365645      -0.28704594       0.23397602       0.48157844       0.33901625      -1.71847318       1.77323866
I        3.66400005       2.60239937       6.09305411       0.01180217      -0.78185504      -0.25091426      -2.47708743       1.51295051       1.91347198
I       12.38476732      18.73786337       3.29762057       0.08883677       0.28761412      -0.30505219      -3.41408725       2.09600977      -0.64032604
I        8.38796980      18.13154944       5.05891297       0.19759616       0.35114724       0.39318608      -2.46573748       1.50468832      -3.30643784
I        5.46537243      16.47167182       3.39604350      -0.29764813      -0.05677608       0.04726989      -3.20810360       2.25492810      -1.47253654
I       15.58463113      20.57839414       5.48641444       0.15129964      -0.12311146       0.26301060      -2.30867066       4.59805486      -1.20948562
I        6.41399529       0.97906197       3.74090618       0.23568379      -0.36835281      -0.19556316      -2.50333206      -1.40049285      -1.25165631
I       14.20312158      15.56742591       6.06497486       0.47657995      -0.51332340      -0.43181204       2.07197851       5.48862531       0.08757534
I        1.38706131      17.03502467      10.85172346       0.06672910      -0.14618046      -0.13602232      -1.40985341       0.48079271       5.38298094
I        1.78770449      20.14717014       8.42265087      -0.30791863       0.44932183      -0.19074832      -2.26783383       1.00782441      -3.25908508
I       10.59255762       0.75886333      10.23545999      -0.31443278      -0.14369043       0.19028858      -0.97973598       1.50714508       0.45660523
I       10.36448381      15.25515729       8.19482053       0.06142533      -0.24587728       0.10140863       2.74231607      -1.08703399      -0.49220550
I       17.38986868      13.54626840       8.24121512      -0.02500846       0.01871776      -0.28141100       1.84949131      -4.73496554      -4.70850664
I        3.44337904       2.46649162      10.77677837       0.11367291      -0.05187296       0.08887611      -2.68817528      -6.88250134      -3.14204428
I       12.74792202      18.85849100       8.23130786      -0.12471021       0.00276462       0.01715548       4.40971032      -0.68722471       1.20040540
I        8.64929790      17.92005268      10.70669311       0.09822227       0.51444049      -0.07584579      -0.66563861       0.71736257       1.08442217
I        5.51196183      16.35879213       8.48903172      -0.30289919       0.04582335      -0.37687084      -5.89307274       3.19556772      -4.05070806
I       15.86656723      20.76740417      10.92886304      -0.47124076      -0.09308885      -0.38238036      -1.96229385       0.12351231       1.29388027
I        6.47014061       0.48291959       7.96461046       0.56053602       0.06714656       0.05380891      -1.83545168       1.10666521       0.21633461
I       14.66378041      15.49000336      10.62148461      -0.28307500      -0.10360560       0.05395744       0.62835168       1.57032505       3.70078410
Cs       7.57170278      13.61916688      15.27835293      -0.10385555       0.40662202       0.06024352       0.40818251       1.07672205       2.90409048
Cs      13.27591191       2.05896810      13.19694803       0.26305749      -0.05402160      -0.38704930      -0.83155852       3.98464017      -0.29664903
Cs       4.82445096      19.32274063      15.42798308       0.22032673      -0.00329115      -0.11457890       2.36571197       2.09456741       2.75963621
Cs      16.25959974      18.31624279      12.99932441       0.16410707      -0.32752784       0.15116063      -1.29879455       0.16427473       2.30693336
Cs       7.40892972      14.25223017       0.78609917       0.09382544      -0.23933918       0.10593283      -0.03524363       3.87637121      -0.26884462
Cs      13.63330212       2.24247677      17.83916431      -0.00346189       0.17221747       0.09963825       1.91673698       0.01977455      -0.49162325
Cs       4.60702944      19.46684343       0.82754735       0.19574279      -0.11265293       0.17439679      -1.77524384      -0.47319022      -2.86509963
Cs      16.15910544      17.83069702      17.87282955       0.18856859      -0.26275489       0.02768280       0.00784977      -3.50534162       5.13283414
Pb       2.67816916      14.82752090      12.82934238      -0.57498108      -0.17819152       0.15655726      -5.21897558       7.48658831       0.04983793
Pb      18.58412627       0.91798149      15.30212477       0.12401400       0.61012387       0.31824331      -6.41062097      -1.23686582       0.98684170
Pb       9.35993921      20.18248456      13.01737706      -0.00249845       0.23855877      -0.21771534       0.62863211      -0.71892420      -0.46714590
Pb      11.70821391      16.89479368      15.34554392      -0.41362283      -0.45924723      -0.12522798       2.03918946      -2.84909814       3.50420348
Pb       2.89412756      14.67993140      17.92963172      -0.18404222       0.25527895      -0.34859907      -1.67153469      -1.04261083      -4.86501437
Pb      18.20733338       1.23313591       0.60626188      -0.05843324      -0.35844859       0.14758510      -3.54963533      -0.33951342       0.69249150
Pb       9.66389384      20.27480846      17.94276681       0.20912031      -0.32549182      -0.57666921       4.27419430       1.11278788       2.00578676
Pb      11.49171405      16.82522898       1.11112244       0.23222295      -0.66337141      -0.54179602       2.28318625       7.50151753      -5.07991788
I        1.95730850      16.80175118      15.48405547      -0.33573019      -0.25929428       0.18590513      -1.32594572      -4.08194820       0.88537119
I        1.88563284      20.28404085      13.10174648      -0.13186655      -0.05264583       0.29113161       2.09887027       0.96773737       1.13768123
I       10.76334961       0.94449332      15.52638875      -0.46878917       0.08492410       0.02644828       1.72572968       3.41470182      -4.86013113
I       10.37411046      14.60828659      12.92125699       0.74205336       0.78036767       0.11819082       2.59697959      -0.94155315      -3.08182927
I       17.16075837      13.56224531      13.29045109       0.49366191      -0.38501220      -0.73164139      -1.96178037      -0.03266107       1.40357841
I        3.39855134       2.50496199      15.43503319       0.40666490       0.03571891       0.03169302       0.19780646      -4.39631297      -0.12200503
I       12.33902137      18.99111184      13.20621413       0.42595399      -0.01761104      -0.50321982       1.90995904      -1.24309711       1.47297271
I        8.77593214      18.13115017      15.31405868      -0.39623727       0.07992544      -0.01647440       1.72430513      -0.09103221      -0.76913061
I        5.20834882      16.02534587      12.91155333       0.59263806       0.75548197       0.12175575       1.63923961      -0.48322211      -2.68680673
I       15.83456584      21.21729597      15.63856507      -0.25176849      -0.53956694      -0.13596984      -3.93584326      -0.30096542       1.00691173
I        6.40544057       0.72539208      12.96630714       0.19207114       0.02290555       0.10687792       1.83544128       2.28120093      -7.35061408
I       14.50239120      15.51190597      15.22964917       0.16897488       0.09139287       0.24353413       0.60610708       2.32445360       1.65943404
I        1.80197726      16.76641341       0.81928360      -0.33712761       0.30047759       0.31968360      -1.09641786       0.57703937       2.62707998
I        1.92478198      20.38986242      17.62042778      -0.29399697      -0.17890532       0.45773246      -1.25167663      -2.51665513       0.36630763
I       10.48040285       1.27317431       0.41398854      -0.05485468      -0.09610743       0.75147607       2.06121878      -0.45159927       1.90718636
I       10.44243227      14.92402177      17.46511131       0.22531152       0.32444064       0.86992140      -0.15202938      -2.16151060      -1.18765791
I       17.63950473      13.44654039      17.71239954      -0.77501093       0.51463436       0.17046348       1.69821067       2.11518125       0.60989216
I        3.37840388       1.86628020       1.35325542      -0.06252545       0.52429329      -0.29078806       2.36909650      -1.65439835      -0.12664590
I       12.59708863      18.80055597      17.86407129       0.19369099      -0.16396793       0.02946946      -2.85640135      -0.12282450      -0.18263161
I        8.17191224      18.17723372       0.96689269       0.43622046      -0.01901927      -0.01937232       1.23148498      -0.97511386       0.47237510
I        5.50349450      16.11207909      17.65520392       0.34079472       0.35596596       0.05615395       3.25866916       2.03517334       0.51089963
I       15.71273080      20.61536616       0.85710843      -0.14118736       0.28211123      -0.01514632       1.98987229      -4.28159488       0.77510961
I        6.89567881       0.70769120      18.09654359      -0.67649854       0.13318590      -0.24756344       5.44000259       0.35130722       1.52163264
I       14.29152437      15.17368674       1.49799344      -0.46138388       0.33257557      -0.43043486       0.94401996      -0.80751539       0.98501966
Cs      25.46506549       3.77351946       5.71704789      -0.08585219      -0.26266672      -0.28592571      -0.28754438      -4.14654422      -1.36263225
Cs      31.25271942      12.36768354       3.21812006       0.08382315      -0.52128695       0.26766508      -0.47583262       2.51825136      -1.18724884
Cs      22.67549526       8.81779395       5.82309218      -0.15340085      -0.25646848      -0.36491499       2.10139259      -1.46588607       4.09667604
Cs      34.48736440       6.49326192       3.27490922      -0.11077645       0.27986210       0.06763505      -2.19165848       3.04353906       3.02154945
Cs      25.53924894       3.76431650      10.78542158      -0.22901555      -0.07588955      -0.11150860       4.91373841      -2.69041886       1.16014088
Cs      31.21803840      12.12509018       8.11584420       0.34548992       0.13655499      -0.10452230      -0.06557701      -3.68027293       4.06371202
Cs      22.51246684       8.61296526      10.38582036      -0.17789603      -0.00033514       0.12978126       1.10012157       3.80925177       1.25426543
Cs      34.44378947       6.45038749       8.25047490      -0.06848564       0.21228530      -0.09196070       1.88085536       3.76069000       3.73201910
Pb      20.40391721       4.22203282       2.97740773       0.67892189       0.38498032       0.69742117       2.19298831       1.55521329       2.89041436
Pb       0.18209058      11.47627668       6.06634076       0.33349395      -0.20948147      -0.03181746       3.30342904       1.72570842       1.65390659
Pb      27.18657865       8.94558484       3.10685822      -0.36374805       0.64264220       0.44134115       4.71055344       0.18984339      -4.47152017
Pb      29.68397045       6.01592628       5.89480361      -0.34602948      -0.06467107       0.12767189       5.28480860       2.28119599      -5.42231837
Pb      20.64411304       4.29324088       8.46380037      -0.47772049       0.10263637      -0.35151446      -5.38078503       1.63624718      -0.25456349
Pb       0.54961008      11.45247202      10.76493718       0.17465569       0.00773639      -0.25122811      -9.11230880      -3.32885407      -1.78405886
Pb      27.33942981       9.45720086       7.96272038       0.32628773      -0.35807490      -0.05772814       3.86860946      -1.81817849       2.10950542
Pb      29.32357162       6.28235893      10.55899142       0.48053748      -0.66215477      -0.11088700       2.23083120       0.89320523       0.28915323
I       19.70718515       6.11178136       5.65226465      -0.12562970      -0.00004675       0.24981671       0.06360724       1.54517195      -2.06465292
I       19.81608052       9.86284627       3.11669597      -0.47885630       0.06648282       0.68809059      -1.61788165      -3.82249755       1.65124664
I       28.30810183      11.11756386       5.66112241       0.09986003       0.16587275      -0.62383336      -4.92618391      -0.11835892      -1.97343257
I       28.86657344       3.96091998       3.29951229      -0.08112520       0.45661877       0.17792737      -1.84857650       3.29716018      -1.43300129
I       35.55807801       2.71671549       3.33506845      -0.57214034      -0.20302075      -0.19490398      -1.05825111      -0.56334007       1.87996030
I       21.42566373      12.88280370       5.69990797      -0.38868966      -0.33623395       0.57206364      -3.16092820       0.74986922      -2.04121150
I       30.12305361       8.08665632       3.38682431       0.70882944       0.03083834      -0.21095010      -2.55396087       2.10896478      -2.87381463
I       26.23552721       7.33486021       5.78196633       0.35589435      -0.22494653      -0.24378674      -5.22598090      -2.92025453      -1.63045730
I       23.37289318       5.62283907       2.60869465      -0.50823616      -0.08736600       0.41010706       1.07098136      -6.36674644      -2.87995052
I       33.30297149       9.58324004       5.76250429      -0.18611778      -0.05322199      -0.17775316       0.46476091       1.86483901      -1.82037961
I       24.53545514      10.75308914       3.10521283       0.12711063       0.20705674       0.09170028       3.88563987       0.78737191       3.68324328
I       32.30231898       4.46158242       6.01694139      -0.00490913       0.08116459      -0.25639758      -2.44063050       0.10243726       3.98918151
I       19.15920248       6.38405636      10.79947524       0.21882898      -0.21796792      -0.29493809       5.01167550      -0.87680265       1.05223286
I       18.92339167       9.28301436       8.03537414       0.32531877       0.36689550       0.17092422       2.79517645      -5.47715125      -0.56426492