320
Lattice="25.121854697261806 -0.05977452525107978 -0.12957468506993428 0.07192418218408468 24.82535238426277 -0.21579304325525844 0.12447059888337542 -0.778188195725328 24.81728374174729" Properties=species:S:1:pos:R:3:forces:R:3:momenta:R:3 pbc="T T T"
Cs       9.06285733      16.72170030       5.89832496       0.02343821       0.00869794       0.01560249       0.28126352       0.45323015       0.85069812
Cs       2.94789604      11.48970475       5.37563878      -0.10343763       0.11927987      -0.02250375      -1.31501751       0.56918069       1.10594803
Cs       2.80161714      11.37290025      11.78075805      -0.00757548      -0.02068541      -0.12676835       0.17653027       0.79293423       2.12524094
Cs       9.14172176      16.73852429      12.55835716       0.00630093       0.03101881       0.00978248       0.60322870       0.89227201       0.71758386
Cs       9.00062401      10.51044036      12.21334972       0.11243422      -0.17632887       0.10022350      -0.27172833      -2.17286871       0.18636731
Cs       2.64992523      17.24360294      11.38442165      -0.04530064      -0.03155457      -0.09586659       0.55327380       1.60150300       1.67496841
Cs       2.80512250      18.21164214       5.41703409       0.04139076      -0.02834912      -0.03385434      -1.50713987      -1.59222008      -1.10055267
Cs       9.01271894      10.51150858       6.38913193       0.00808059       0.08057848       0.05535544      -0.80274774       0.49470664       1.77163395
Pb      24.70660672       7.61695475       8.58894269      -0.07972782       0.02622399       0.18746582      -2.34961424       0.53889783      -2.91805146
Pb       5.94850673      14.09981991       8.95592762       0.14848598      -0.09530727      -0.04785642       0.15144490      -1.07315246      -0.67631890
Pb      24.67023855      13.84294049       8.70973703       0.03789131       0.17182594      -0.22766304       2.69798364       0.36175525       0.10875398
Pb       5.84883921       7.75953379       9.13398443       0.00847722       0.01938221      -0.15100684       2.11632648      -2.71250085      -1.06413818
Pb      24.76375551       8.15401929       2.45623922      -0.05954681       0.31907620      -0.03119054      -0.43206909       0.74492212      -0.03484676
Pb       6.02767647      14.44795659       2.73443139      -0.38226477      -0.15245975       0.09238018       0.18965628       1.08133093      -0.21552287
Pb      24.72398837      14.52720560       2.50942705       0.33480060      -0.28679935       0.41999496      -0.74300875       2.42358778      -1.24399863
Pb       5.83488506       8.17090699       2.80603289       0.11134798       0.19514435      -0.30524392      -1.05013578       1.55827954      -0.09786657
I       24.21826923      10.92354405       9.38900744       0.00795709      -0.38054963      -0.01366453       0.36886777      -0.58475492       1.99356985
I        5.30793472      17.12293980       8.22394892      -0.00125394      -0.02501097      -0.08177797       1.01804205       0.77592794       1.60747921
I       12.57520142      17.01299130       7.72170270       0.05198155       0.23957939       0.21205711       0.82658890      -0.47224232       0.46040916
I        6.36160879      10.85749071       9.72662221      -0.04914951       0.22256035      -0.14678457       0.30212664      -0.44947962       0.44671374
I        9.17989900      15.00792258       9.14212703      -0.31782760      -0.17418682       0.16088762      -0.21520652       1.49513071       1.50301971
I        2.68781551      20.56933250       9.22589875       0.07444124       0.05189889       0.06743322       0.92822310       1.75887854      -1.18335975
I        2.83384349      13.73461642       8.68387009       0.01454846      -0.07527524      -0.08370538       0.53447826      -0.14794143      -0.47791084
I        8.92629244       7.20077648       8.62238831       0.08662358       0.07720631      -0.11160322      -1.10398527      -0.02938927      -0.41938286
I       11.79103561      17.68695761       3.32598380      -0.07006224      -0.15356362      -0.01837215       1.66955431      -0.53898842       0.81352107
I        5.43637555      11.37495659       1.98665034       0.06279577      -0.17505753       0.08660367      -0.81082793       1.81350638       1.21269859
I        0.32370122      11.13643312      14.52074355      -0.14916456      -0.31603439       0.05404913       0.46680907      -0.19674350      -0.57574962
I        6.45897511      17.18469907      15.77769979       0.01631214      -0.06388936      -0.01239241      -0.57598371       0.87132946       0.95551449
I        2.86677189      14.48934887      15.81922662       0.02664908      -0.02225681      -0.07094467      -1.84487681       0.84205044       1.64282944
I        9.10677772       8.33333015      15.48437895      -0.10320989      -0.03767267      -0.10268502      -1.12473861       1.51773173      -0.12909933
I        9.06866104      13.84355037       2.16724031      -0.02969704       0.08098454       0.04451793       0.56265980       0.42232711       2.02573188
I        2.72921015      20.14118003       1.89702197       0.18391708       0.00285276       0.09917629      -1.30609598       0.35930543       0.24059417
I       24.23764351      19.46813370      11.68932173       0.05949052       0.04668688       0.07926299       0.60636680      -0.99828306      -0.37260119
I        5.43583177      14.60421527      12.03667223       0.04740270       0.07516556       0.15461144       1.48785463       1.67579865      -0.99960086
I       12.79819740       8.63676793       5.74338866      -0.07048679       0.08672482      -0.17033441       1.34453816       0.64004015       3.90357956
I        6.53896441      13.56934507       5.86846899      -0.00859634      -0.05088412      -0.16714327      -0.62588323       3.18167710       1.69543502
I       24.19662875      13.35441395       5.64162766      -0.00239574       0.00287157       0.10969369      -1.52449919       0.76335585      -0.59488768
I        5.58370291      21.12632446       5.70385720      -0.03744298      -0.04077899       0.12811848       1.44900479       1.19310430      -0.25429125
I       12.49140854      14.44262709      12.04669367       0.12252259       0.23218851      -0.33509058       0.30013691       2.17010523       0.38397114
I        6.35761316       6.75876236      11.95120177      -0.07014981       0.21669711       0.27923551       1.23672008       1.45184922       0.29227855
Cs       9.12509263      16.33260620      18.30696683       0.02343821       0.00869794       0.01560249       0.28126352       0.45323015       0.85069812
Cs       3.01013134      11.10061065      17.78428065      -0.10343763       0.11927987      -0.02250375      -1.31501751       0.56918069       1.10594803
Cs       2.86385244      10.98380615      24.18939992      -0.00757548      -0.02068541      -0.12676835       0.17653027       0.79293423       2.12524094
Cs       9.07948646      17.12761839       0.14971529       0.00630093       0.03101881       0.00978248       0.60322870       0.89227201       0.71758386
Cs       9.06285931      10.12134626      24.62199159       0.11243422      -0.17632887       0.10022350      -0.27172833      -2.17286871       0.18636731
Cs       2.71216053      16.85450884      23.79306352      -0.04530064      -0.03155457      -0.09586659       0.55327380       1.60150300       1.67496841
Cs       2.86735780      17.82254804      17.82567596       0.04139076      -0.02834912      -0.03385434      -1.50713987      -1.59222008      -1.10055267
Cs       9.07495424      10.12241448      18.79777380       0.00808059       0.08057848       0.05535544      -0.80274774       0.49470664       1.77163395
Pb      24.76884202       7.22786066      20.99758457      -0.07972782       0.02622399       0.18746582      -2.34961424       0.53889783      -2.91805146
Pb       6.01074203      13.71072581      21.36456949       0.14848598      -0.09530727      -0.04785642       0.15144490      -1.07315246      -0.67631890
Pb      24.73247385      13.45384640      21.11837891       0.03789131       0.17182594      -0.22766304       2.69798364       0.36175525       0.10875398
Pb       5.91107451       7.37043969      21.54262630       0.00847722       0.01938221      -0.15100684       2.11632648      -2.71250085      -1.06413818
Pb      24.82599081       7.76492520      14.86488110      -0.05954681       0.31907620      -0.03119054      -0.43206909       0.74492212      -0.03484676
Pb       6.08991177      14.05886249      15.14307326      -0.38226477      -0.15245975       0.09238018       0.18965628       1.08133093      -0.21552287
Pb      24.78622367      14.13811151      14.91806893       0.33480060      -0.28679935       0.41999496      -0.74300875       2.42358778      -1.24399863
Pb       5.89712036       7.78181289      15.21467476       0.11134798       0.19514435      -0.30524392      -1.05013578       1.55827954      -0.09786657
I       24.28050453      10.53444996      21.79764932       0.00795709      -0.38054963      -0.01366453       0.36886777      -0.58475492       1.99356985
I        5.37017002      16.73384570      20.63259079      -0.00125394      -0.02501097      -0.08177797       1.01804205       0.77592794       1.60747921
I       12.63743672      16.62389720      20.13034457       0.05198155       0.23957939       0.21205711       0.82658890      -0.47224232       0.46040916
I        6.42384409      10.46839661      22.13526408      -0.04914951       0.22256035      -0.14678457       0.30212664      -0.44947962       0.44671374
I        9.24213430      14.61882848      21.55076890      -0.31782760      -0.17418682       0.16088762      -0.21520652       1.49513071       1.50301971
I        2.75005081      20.18023840      21.63454062       0.07444124       0.05189889       0.06743322       0.92822310       1.75887854      -1.18335975
I        2.89607879      13.34552232      21.09251196       0.01454846      -0.07527524      -0.08370538       0.53447826      -0.14794143      -0.47791084
I        8.98852774       6.81168238      21.03103018       0.08662358       0.07720631      -0.11160322      -1.10398527      -0.02938927      -0.41938286
I       11.85327091      17.29786351      15.73462567      -0.07006224      -0.15356362      -0.01837215       1.66955431      -0.53898842       0.81352107
I        5.49861085      10.98586249      14.39529221       0.06279577      -0.17505753       0.08660367      -0.81082793       1.81350638       1.21269859
I        0.26146592      11.52552722       2.11210168      -0.14916456      -0.31603439       0.05404913       0.46680907      -0.19674350      -0.57574962
I        6.39673981      17.57379317       3.36905792       0.01631214      -0.06388936      -0.01239241      -0.57598371       0.87132946       0.95551449
I        2.80453659      14.87844297       3.41058475       0.02664908      -0.02225681      -0.07094467      -1.84487681       0.84205044       1.64282944
I        9.04454242       8.72242425       3.07573708      -0.10320989      -0.03767267      -0.10268502      -1.12473861       1.51773173      -0.12909933
I        9.13089634      13.45445627      14.57588218      -0.02969704       0.08098454       0.04451793       0.56265980       0.42232711       2.02573188
I        2.79144545      19.75208593      14.30566384       0.18391708       0.00285276       0.09917629      -1.30609598       0.35930543       0.24059417
I       24.29987881      19.07903961      24.09796361       0.05949052       0.04668688       0.07926299       0.60636680      -0.99828306      -0.37260119
I        5.49806707      14.21512117      24.44531410       0.04740270       0.07516556       0.15461144       1.48785463       1.67579865      -0.99960086
I       12.86043270       8.24767383      18.15203053      -0.07048679       0.08672482      -0.17033441       1.34453816       0.64004015       3.90357956
I        6.60119971      13.18025097      18.27711086      -0.00859634      -0.05088412      -0.16714327      -0.62588323       3.18167710       1.69543502
I       24.25886405      12.96531986      18.05026954      -0.00239574       0.00287157       0.10969369      -1.52449919       0.76335585      -0.59488768
I        5.64593821      20.73723036      18.11249907      -0.03744298      -0.04077899       0.12811848       1.44900479       1.19310430      -0.25429125
I       12.55364384      14.05353299      24.45533554       0.12252259       0.23218851      -0.33509058       0.30013691       2.17010523       0.38397114
I        6.41984846       6.36966826      24.35984364      -0.07014981       0.21669711       0.27923551       1.23672008       1.45184922       0.29227855
Cs       9.02689524       4.30902411       6.00622148       0.02343821       0.00869794       0.01560249       0.28126352       0.45323015       0.85069812
Cs       2.98385813      23.90238094       5.26774226      -0.10343763       0.11927987      -0.02250375      -1.31501751       0.56918069       1.10594803
Cs       2.83757923      23.78557644      11.67286153      -0.00757548      -0.02068541      -0.12676835       0.17653027       0.79293423       2.12524094
Cs       9.10575967       4.32584810      12.66625368       0.00630093       0.03101881       0.00978248       0.60322870       0.89227201       0.71758386
Cs       9.03658610      22.92311655      12.10545320       0.11243422      -0.17632887       0.10022350      -0.27172833      -2.17286871       0.18636731
Cs       2.61396314       4.83092675      11.49231817      -0.04530064      -0.03155457      -0.09586659       0.55327380       1.60150300       1.67496841
Cs       2.76916041       5.79896595       5.52493061       0.04139076      -0.02834912      -0.03385434      -1.50713987      -1.59222008      -1.10055267
Cs       9.04868103      22.92418477       6.28123541       0.00808059       0.08057848       0.05535544      -0.80274774       0.49470664       1.77163395
Pb      24.74256881      20.02963095       8.48104617      -0.07972782       0.02622399       0.18746582      -2.34961424       0.53889783      -2.91805146
Pb       5.91254464       1.68714372       9.06382414       0.14848598      -0.09530727      -0.04785642       0.15144490      -1.07315246      -0.67631890
Pb      24.63427646       1.43026430       8.81763356       0.03789131       0.17182594      -0.22766304       2.69798364       0.36175525       0.10875398
Pb       5.88480130      20.17220998       9.02608791       0.00847722       0.01938221      -0.15100684       2.11632648      -2.71250085      -1.06413818
Pb      24.79971760      20.56669549       2.34834270      -0.05954681       0.31907620      -0.03119054      -0.43206909       0.74492212      -0.03484676
Pb       5.99171438       2.03528040       2.84232791      -0.38226477      -0.15245975       0.09238018       0.18965628       1.08133093      -0.21552287
Pb      24.68802628       2.11452941       2.61732358       0.33480060      -0.28679935       0.41999496      -0.74300875       2.42358778      -1.24399863
Pb       5.87084715      20.58358318       2.69813637       0.11134798       0.19514435      -0.30524392      -1.05013578       1.55827954      -0.09786657
I       24.25423132      23.33622025       9.28111092       0.00795709      -0.38054963      -0.01366453       0.36886777      -0.58475492       1.99356985
I        5.27197263       4.71026361       8.33184544      -0.00125394      -0.02501097      -0.08177797       1.01804205       0.77592794       1.60747921
I       12.53923933       4.60031511       7.82959922       0.05198155       0.23957939       0.21205711       0.82658890      -0.47224232       0.46040916
I        6.39757088      23.27016690       9.61872569      -0.04914951       0.22256035      -0.14678457       0.30212664      -0.44947962       0.44671374
I        9.14393691       2.59524639       9.25002355      -0.31782760      -0.17418682       0.16088762      -0.21520652       1.49513071       1.50301971
I        2.65185342       8.15665631       9.33379527       0.07444124       0.05189889       0.06743322       0.92822310       1.75887854      -1.18335975
I        2.79788140       1.32194023       8.79176661       0.01454846      -0.07527524      -0.08370538       0.53447826      -0.14794143      -0.47791084
I        8.96225453      19.61345267       8.51449179       0.08662358       0.07720631      -0.11160322      -1.10398527      -0.02938927      -0.41938286
I       11.75507352       5.27428142       3.43388032      -0.07006224      -0.15356362      -0.01837215       1.66955431      -0.53898842       0.81352107
I        5.47233764      23.78763278       1.87875382       0.06279577      -0.17505753       0.08660367      -0.81082793       1.81350638       1.21269859
I        0.35966331      23.54910931      14.41284703      -0.14916456      -0.31603439       0.05404913       0.46680907      -0.19674350      -0.57574962
I        6.42301302       4.77202288      15.88559631       0.01631214      -0.06388936      -0.01239241      -0.57598371       0.87132946       0.95551449
I        2.83080980       2.07667268      15.92712314       0.02664908      -0.02225681      -0.07094467      -1.84487681       0.84205044       1.64282944
I        9.14273981      20.74600634      15.37648243      -0.10320989      -0.03767267      -0.10268502      -1.12473861       1.51773173      -0.12909933
I        9.03269895       1.43087418       2.27513683      -0.02969704       0.08098454       0.04451793       0.56265980       0.42232711       2.02573188
I        2.69324806       7.72850384       2.00491849       0.18391708       0.00285276       0.09917629      -1.30609598       0.35930543       0.24059417
I       24.20168142       7.05545751      11.79721826       0.05949052       0.04668688       0.07926299       0.60636680      -0.99828306      -0.37260119
I        5.39986968       2.19153908      12.14456875       0.04740270       0.07516556       0.15461144       1.48785463       1.67579865      -0.99960086
I       12.83415949      21.04944412       5.63549214      -0.07048679       0.08672482      -0.17033441       1.34453816       0.64004015       3.90357956
I        6.50300232       1.15666888       5.97636551      -0.00859634      -0.05088412      -0.16714327      -0.62588323       3.18167710       1.69543502
I       24.16066666       0.94173776       5.74952419      -0.00239574       0.00287157       0.10969369      -1.52449919       0.76335585      -0.59488768
I        5.54774082       8.71364827       5.81175372      -0.03744298      -0.04077899       0.12811848       1.44900479       1.19310430      -0.25429125
I       12.45544645       2.02995090      12.15459019       0.12252259       0.23218851      -0.33509058       0.30013691       2.17010523       0.38397114
I        6.39357525      19.17143855      11.84330525      -0.07014981       0.21669711       0.27923551       1.23672008       1.45184922       0.29227855
Cs       9.08913054       3.91993001      18.41486335       0.02343821       0.00869794       0.01560249       0.28126352       0.45323015       0.85069812
Cs       3.04609343      23.51328684      17.67638413      -0.10343763       0.11927987      -0.02250375      -1.31501751       0.56918069       1.10594803
Cs       2.89981453      23.39648234      24.08150340      -0.00757548      -0.02068541      -0.12676835       0.17653027       0.79293423       2.12524094
Cs       9.04352437       4.71494220       0.25761181       0.00630093       0.03101881       0.00978248       0.60322870       0.89227201       0.71758386
Cs       9.09882140      22.53402245      24.51409507       0.11243422      -0.17632887       0.10022350      -0.27172833      -2.17286871       0.18636731
Cs       2.67619844       4.44183265      23.90096004      -0.04530064      -0.03155457      -0.09586659       0.55327380       1.60150300       1.67496841
Cs       2.83139571       5.40987185      17.93357248       0.04139076      -0.02834912      -0.03385434      -1.50713987      -1.59222008      -1.10055267
Cs       9.11091633      22.53509067      18.68987728       0.00808059       0.08057848       0.05535544      -0.80274774       0.49470664       1.77163395
Pb      24.80480411      19.64053685      20.88968804      -0.07972782       0.02622399       0.18746582      -2.34961424       0.53889783      -2.91805146
Pb       5.97477994       1.29804962      21.47246601       0.14848598      -0.09530727      -0.04785642       0.15144490      -1.07315246      -0.67631890
Pb      24.69651176       1.04117020      21.22627543       0.03789131       0.17182594      -0.22766304       2.69798364       0.36175525       0.10875398
Pb       5.94703660      19.78311588      21.43472978       0.00847722       0.01938221      -0.15100684       2.11632648      -2.71250085      -1.06413818
Pb      24.86195290      20.17760139      14.75698457      -0.05954681       0.31907620      -0.03119054      -0.43206909       0.74492212      -0.03484676
Pb       6.05394968       1.64618630      15.25096978      -0.38226477      -0.15245975       0.09238018       0.18965628       1.08133093      -0.21552287
Pb      24.75026158       1.72543531      15.02596545       0.33480060      -0.28679935       0.41999496      -0.74300875       2.42358778      -1.24399863
Pb       5.93308245      20.19448908      15.10677824       0.11134798       0.19514435      -0.30524392      -1.05013578       1.55827954      -0.09786657
I       24.31646662      22.94712615      21.68975279       0.00795709      -0.38054963      -0.01366453       0.36886777      -0.58475492       1.99356985
I        5.33420793       4.32116951      20.74048731      -0.00125394      -0.02501097      -0.08177797       1.01804205       0.77592794       1.60747921
I       12.60147463       4.21122101      20.23824109       0.05198155       0.23957939       0.21205711       0.82658890      -0.47224232       0.46040916
I        6.45980618      22.88107280      22.02736756      -0.04914951       0.22256035      -0.14678457       0.30212664      -0.44947962       0.44671374
I        9.20617221       2.20615229      21.65866542      -0.31782760      -0.17418682       0.16088762      -0.21520652       1.49513071       1.50301971
I        2.71408872       7.76756221      21.74243714       0.07444124       0.05189889       0.06743322       0.92822310       1.75887854      -1.18335975
I        2.86011670       0.93284613      21.20040848       0.01454846      -0.07527524      -0.08370538       0.53447826      -0.14794143      -0.47791084
I        9.02448983      19.22435857      20.92313366       0.08662358       0.07720631      -0.11160322      -1.10398527      -0.02938927      -0.41938286
I       11.81730882       4.88518732      15.84252219      -0.07006224      -0.15356362      -0.01837215       1.66955431      -0.53898842       0.81352107
I        5.53457294      23.39853868      14.28739569       0.06279577      -0.17505753       0.08660367      -0.81082793       1.81350638       1.21269859
I        0.29742801      23.93820341       2.00420516      -0.14916456      -0.31603439       0.05404913       0.46680907      -0.19674350      -0.57574962
I        6.36077772       5.16111698       3.47695444       0.01631214      -0.06388936      -0.01239241      -0.57598371       0.87132946       0.95551449
I        2.76857450       2.46576678       3.51848127       0.02664908      -0.02225681      -0.07094467      -1.84487681       0.84205044       1.64282944
I        9.08050451      21.13510044       2.96784056      -0.10320989      -0.03767267      -0.10268502      -1.12473861       1.51773173      -0.12909933
I        9.09493425       1.04178008      14.68377870      -0.02969704       0.08098454       0.04451793       0.56265980       0.42232711       2.02573188
I        2.75548336       7.33940974      14.41356036       0.18391708       0.00285276       0.09917629      -1.30609598       0.35930543       0.24059417
I       24.26391672       6.66636341      24.20586013       0.05949052       0.04668688       0.07926299       0.60636680      -0.99828306      -0.37260119
I        5.46210498       1.80244498      24.55321062       0.04740270       0.07516556       0.15461144       1.48785463       1.67579865      -0.99960086
I       12.89639479      20.66035002      18.04413401      -0.07048679       0.08672482      -0.17033441       1.34453816       0.64004015       3.90357956
I        6.56523762       0.76757478      18.38500738      -0.00859634      -0.05088412      -0.16714327      -0.62588323       3.18167710       1.69543502
I       24.22290196       0.55264366      18.15816606      -0.00239574       0.00287157       0.10969369      -1.52449919       0.76335585      -0.59488768
I        5.60997612       8.32455417      18.22039559      -0.03744298      -0.04077899       0.12811848       1.44900479       1.19310430      -0.25429125
I       12.51768175       1.64085680      24.56323206       0.12252259       0.23218851      -0.33509058       0.30013691       2.17010523       0.38397114
I        6.45581055      18.78234445      24.25194712      -0.07014981       0.21669711       0.27923551       1.23672008       1.45184922       0.29227855
Cs      21.62378468      16.69181304       5.83353762       0.02343821       0.00869794       0.01560249       0.28126352       0.45323015       0.85069812
Cs      15.50882339      11.45981749       5.31085144      -0.10343763       0.11927987      -0.02250375      -1.31501751       0.56918069       1.10594803
Cs      15.36254449      11.34301299      11.71597071      -0.00757548      -0.02068541      -0.12676835       0.17653027       0.79293423       2.12524094
Cs      21.70264911      16.70863703      12.49356982       0.00630093       0.03101881       0.00978248       0.60322870       0.89227201       0.71758386
Cs      21.56155136      10.48055310      12.14856238       0.11243422      -0.17632887       0.10022350      -0.27172833      -2.17286871       0.18636731
Cs      15.21085258      17.21371568      11.31963431      -0.04530064      -0.03155457      -0.09586659       0.55327380       1.60150300       1.67496841
Cs      15.36604985      18.18175488       5.35224675       0.04139076      -0.02834912      -0.03385434      -1.50713987      -1.59222008      -1.10055267
Cs      21.57364629      10.48162132       6.32434459       0.00808059       0.08057848       0.05535544      -0.80274774       0.49470664       1.77163395
Pb      12.14567937       7.64684202       8.65373004      -0.07972782       0.02622399       0.18746582      -2.34961424       0.53889783      -2.91805146
Pb      18.50943408      14.06993265       8.89114028       0.14848598      -0.09530727      -0.04785642       0.15144490      -1.07315246      -0.67631890
Pb      12.10931120      13.87282776       8.77452438       0.03789131       0.17182594      -0.22766304       2.69798364       0.36175525       0.10875398
Pb      18.40976656       7.72964653       9.06919709       0.00847722       0.01938221      -0.15100684       2.11632648      -2.71250085      -1.06413818
Pb      12.20282816       8.18390656       2.52102657      -0.05954681       0.31907620      -0.03119054      -0.43206909       0.74492212      -0.03484676
Pb      18.58860382      14.41806933       2.66964405      -0.38226477      -0.15245975       0.09238018       0.18965628       1.08133093      -0.21552287
Pb      12.16306102      14.55709287       2.57421440       0.33480060      -0.28679935       0.41999496      -0.74300875       2.42358778      -1.24399863
Pb      18.39581241       8.14101973       2.74124555       0.11134798       0.19514435      -0.30524392      -1.05013578       1.55827954      -0.09786657
I       11.65734188      10.95343132       9.45379479       0.00795709      -0.38054963      -0.01366453       0.36886777      -0.58475492       1.99356985
I       17.86886207      17.09305254       8.15916158      -0.00125394      -0.02501097      -0.08177797       1.01804205       0.77592794       1.60747921
I       25.13612877      16.98310404       7.65691536       0.05198155       0.23957939       0.21205711       0.82658890      -0.47224232       0.46040916
I       18.92253614      10.82760345       9.66183487      -0.04914951       0.22256035      -0.14678457       0.30212664      -0.44947962       0.44671374
I       21.74082635      14.97803532       9.07733969      -0.31782760      -0.17418682       0.16088762      -0.21520652       1.49513071       1.50301971
I       15.24874286      20.53944524       9.16111141       0.07444124       0.05189889       0.06743322       0.92822310       1.75887854      -1.18335975
I       15.39477084      13.70472916       8.61908275       0.01454846      -0.07527524      -0.08370538       0.53447826      -0.14794143      -0.47791084
I       21.48721979       7.17088922       8.55760097       0.08662358       0.07720631      -0.11160322      -1.10398527      -0.02938927      -0.41938286
I       24.35196296      17.65707035       3.26119646      -0.07006224      -0.15356362      -0.01837215       1.66955431      -0.53898842       0.81352107
I       17.99730290      11.34506933       1.92186300       0.06279577      -0.17505753       0.08660367      -0.81082793       1.81350638       1.21269859
I       12.88462857      11.10654586      14.45595621      -0.14916456      -0.31603439       0.05404913       0.46680907      -0.19674350      -0.57574962
I       19.01990246      17.15481181      15.71291245       0.01631214      -0.06388936      -0.01239241      -0.57598371       0.87132946       0.95551449
I       15.42769924      14.45946161      15.75443928       0.02664908      -0.02225681      -0.07094467      -1.84487681       0.84205044       1.64282944
I       21.66770507       8.30344289      15.41959161      -0.10320989      -0.03767267      -0.10268502      -1.12473861       1.51773173      -0.12909933