320
Lattice="31.392636507215773 -0.04481615214523286 0.09492011689125937 0.1392903615087138 28.887165468702893 0.25788863917263216 -0.2799812260619887 -0.14238296324623026 16.953981605175922" Properties=species:S:1:pos:R:3:forces:R:3:momenta:R:3 pbc="T T T"
Cs       1.65541563       1.63297171       2.13485877      -0.13172838      -0.01041755       0.07786093      -2.07972188      -0.66643919       0.11218431
Cs       5.37857346       4.16211158       6.64412109       0.09274332      -0.11211875       0.00570714       0.51771087      -2.19925501       1.49424656
Cs       1.02834404       8.88161282      15.18246956      -0.02643296      -0.05283723      -0.01250203      -0.71648146      -0.99744641      -0.93161854
Cs       5.83973376      11.06622340       2.60589327      -0.10234514      -0.02986308      -0.11846725       0.85786956      -1.03249552      -1.09907618
Cs       9.01248191       1.17968217       2.34875446      -0.01794685       0.05302425       0.03650971      -0.33320231      -0.58587710      -0.12600502
Cs      13.17993032       3.82595906       6.55387638       0.00428685       0.08080518       0.02623017      -0.39762176      -1.81384401      -1.93913527
Cs       9.40361870       8.39571650      15.10975967       0.08793566       0.02935799       0.02213821      -3.31071845       0.49960452      -0.31413701
Cs      12.68112888      11.38005139       2.53871995       0.08480450       0.03419932       0.00591902      -0.90569390      -1.66555689      -1.72626045
Pb       2.75802915      13.49833594       6.56784636       0.02692822      -0.17754704      -0.09243259      -0.10316101       0.52976719      -1.84652414
Pb       6.70501381      13.31297581       6.67041307       0.10519764      -0.00340099      -0.23115400       0.93135503      -0.65517783       0.38157750
Pb       4.05681639       6.48329969       2.49258307       0.21706145      -0.15101751      -0.07023243      -1.40937449      -2.53274188       1.76456600
Pb       0.26265229       6.57320575       2.36994120      -0.38712569      -0.11181215       0.22050166       0.39671772       0.94785520       1.88774869
Pb      10.71910343      13.65198576       6.85547038      -0.03167532      -0.18067197      -0.19596375       1.01024015      -2.21767211      -4.95763276
Pb      14.58401740      13.63071840       6.85763007      -0.24546183       0.09110316      -0.19766468      -0.40450329       1.76294134      -1.94036140
Pb      11.89306904       6.23450160       2.34237505      -0.20379215      -0.08600279       0.27541470      -0.59369619      -0.66713398      -3.30441527
Pb       7.97420573       6.12283685       2.26875230       0.25854566      -0.02068545      -0.03832084       1.39959667       1.63673458      -0.80311257
I        4.69391275       0.32822695       0.25755809       0.16374484      -0.25742978      -0.18113787      -0.08153860      -0.73941210       0.71786968
I        2.11575504       5.50123919       0.10921827       0.06937854      -0.10655784      -0.14652083      -0.66374123       0.19793411       0.35541654
I        4.74971401       0.36961781       4.32178151      -0.05328593      -0.03339049       0.09231521      -1.76390777      -2.20139063       1.25457152
I        2.25369490       4.84728709       4.53859378      -0.28017056       0.14601746      -0.18614677      -0.71814693      -2.00797983      -0.53149140
I        5.94384403       3.71933194       2.27931045      -0.11857295      -0.01355899      -0.02872529      -0.60670890       1.16219945      -0.26834353
I        0.88011953       1.67723267       6.80590843       0.01986644       0.16096671      -0.00850338       0.42355263      -0.09236198      -0.02998328
I        6.45137588       7.44089026       4.56444684      -0.32262292       0.18275919       0.20149974       1.46934546       1.26896428       0.41933596
I        0.40820265      12.36025470       4.40628020       0.20261049       0.17550817      -0.02447221       0.41774569      -0.34589110      -0.15408544
I        5.70964901       7.32357370      17.01555507       0.04748920       0.19957587       0.04467882       0.00513689       0.42039218       0.62191878
I        0.78503995      12.06490814       0.21739093       0.16091064       0.06720869       0.13593587       1.72720810      -0.06131736       1.70716565
I        4.56482674      10.80169552       6.18406689       0.06392413       0.16791317       0.13482282       1.21324082      -1.29672279      -1.01618168
I        2.28543510       9.09556663       2.76023353       0.02167548       0.03181328       0.01483659       0.29299410       0.52849688       0.28245085
I       12.60514918       0.32071833       0.68752860      -0.09098596      -0.04291309      -0.13833015       0.18165404      -1.08286761       1.18132214
I        9.68874743       4.95846105      16.92772690       0.19174350      -0.02684597      -0.06861665       1.32712364       0.75682656      -1.08361338
I       12.29529006       0.97110172       4.69937122       0.12000424      -0.09279534       0.10884237      -2.27725405       0.94619437       0.39568571
I        9.86699224       4.53766224       4.38320016       0.05233990       0.07215547      -0.13706924      -0.17129550      -1.71062762      -0.20348078
I       13.99100130       3.98415967       2.08462882       0.38265709      -0.29513077      -0.03069907       0.23110848      -1.95859914      -1.88414550
I        8.45442967       1.51595721       6.87393260      -0.17200473      -0.07186626      -0.00711326       0.33133849      -1.27775299       0.98792387
I       13.81732058       7.26847519       4.79814714      -0.01440547       0.05674617       0.07963330       0.51840670       0.80487025      -0.15325372
I        8.89833643      12.12512216       4.38528528      -0.10518253       0.38647030       0.49171105      -1.74381036      -0.24924011       0.33146128
I       13.69701494       8.07415252       0.54334238       0.29499650      -0.03371328      -0.11632708      -0.65468352      -0.60438866       1.25984881
I        8.72941819      11.91855707       0.24764886       0.04542252      -0.07372292       0.15565458       0.62405645       3.24817376      -1.58086336
I       12.73908906      11.09683200       6.40675842      -0.20458769      -0.03026441       0.04554428       0.33852286      -1.51605701      -0.12992009
I       10.00155940       8.73115104       2.86308604      -0.20593976       0.07893925      -0.14535679       1.54796772       1.58757128      -0.05660931
Cs       1.51542502       1.56178023      10.61184957      -0.13172838      -0.01041755       0.07786093      -2.07972188      -0.66643919       0.11218431
Cs       5.23858285       4.09092010      15.12111189       0.09274332      -0.11211875       0.00570714       0.51771087      -2.19925501       1.49424656
Cs       1.16833466       8.95280430       6.70547875      -0.02643296      -0.05283723      -0.01250203      -0.71648146      -0.99744641      -0.93161854
Cs       5.69974315      10.99503192      11.08288407      -0.10234514      -0.02986308      -0.11846725       0.85786956      -1.03249552      -1.09907618
Cs       8.87249130       1.10849069      10.82574526      -0.01794685       0.05302425       0.03650971      -0.33320231      -0.58587710      -0.12600502
Cs      13.03993971       3.75476758      15.03086718       0.00428685       0.08080518       0.02623017      -0.39762176      -1.81384401      -1.93913527
Cs       9.54360932       8.46690798       6.63276886       0.08793566       0.02935799       0.02213821      -3.31071845       0.49960452      -0.31413701
Cs      12.54113827      11.30885991      11.01571075       0.08480450       0.03419932       0.00591902      -0.90569390      -1.66555689      -1.72626045
Pb       2.61803854      13.42714446      15.04483716       0.02692822      -0.17754704      -0.09243259      -0.10316101       0.52976719      -1.84652414
Pb       6.56502320      13.24178433      15.14740387       0.10519764      -0.00340099      -0.23115400       0.93135503      -0.65517783       0.38157750
Pb       3.91682578       6.41210821      10.96957387       0.21706145      -0.15101751      -0.07023243      -1.40937449      -2.53274188       1.76456600
Pb       0.12266168       6.50201427      10.84693200      -0.38712569      -0.11181215       0.22050166       0.39671772       0.94785520       1.88774869
Pb      10.57911282      13.58079428      15.33246118      -0.03167532      -0.18067197      -0.19596375       1.01024015      -2.21767211      -4.95763276
Pb      14.44402679      13.55952692      15.33462087      -0.24546183       0.09110316      -0.19766468      -0.40450329       1.76294134      -1.94036140
Pb      11.75307843       6.16331012      10.81936585      -0.20379215      -0.08600279       0.27541470      -0.59369619      -0.66713398      -3.30441527
Pb       7.83421512       6.05164537      10.74574310       0.25854566      -0.02068545      -0.03832084       1.39959667       1.63673458      -0.80311257
I        4.55392214       0.25703547       8.73454889       0.16374484      -0.25742978      -0.18113787      -0.08153860      -0.73941210       0.71786968
I        1.97576443       5.43004771       8.58620907       0.06937854      -0.10655784      -0.14652083      -0.66374123       0.19793411       0.35541654
I        4.60972340       0.29842633      12.79877231      -0.05328593      -0.03339049       0.09231521      -1.76390777      -2.20139063       1.25457152
I        2.11370429       4.77609561      13.01558458      -0.28017056       0.14601746      -0.18614677      -0.71814693      -2.00797983      -0.53149140
I        5.80385342       3.64814046      10.75630125      -0.11857295      -0.01355899      -0.02872529      -0.60670890       1.16219945      -0.26834353
I        0.74012892       1.60604119      15.28289923       0.01986644       0.16096671      -0.00850338       0.42355263      -0.09236198      -0.02998328
I        6.31138527       7.36969878      13.04143764      -0.32262292       0.18275919       0.20149974       1.46934546       1.26896428       0.41933596
I        0.26821204      12.28906322      12.88327100       0.20261049       0.17550817      -0.02447221       0.41774569      -0.34589110      -0.15408544
I        5.84963963       7.39476518       8.53856426       0.04748920       0.19957587       0.04467882       0.00513689       0.42039218       0.62191878
I        0.64504934      11.99371666       8.69438173       0.16091064       0.06720869       0.13593587       1.72720810      -0.06131736       1.70716565
I        4.42483613      10.73050404      14.66105769       0.06392413       0.16791317       0.13482282       1.21324082      -1.29672279      -1.01618168
I        2.14544449       9.02437515      11.23722433       0.02167548       0.03181328       0.01483659       0.29299410       0.52849688       0.28245085
I       12.46515857       0.24952685       9.16451940      -0.09098596      -0.04291309      -0.13833015       0.18165404      -1.08286761       1.18132214
I        9.82873805       5.02965253       8.45073609       0.19174350      -0.02684597      -0.06861665       1.32712364       0.75682656      -1.08361338
I       12.15529945       0.89991024      13.17636202       0.12000424      -0.09279534       0.10884237      -2.27725405       0.94619437       0.39568571
I        9.72700163       4.46647076      12.86019096       0.05233990       0.07215547      -0.13706924      -0.17129550      -1.71062762      -0.20348078
I       13.85101069       3.91296819      10.56161962       0.38265709      -0.29513077      -0.03069907       0.23110848      -1.95859914      -1.88414550
I        8.31443906       1.44476573      15.35092340      -0.17200473      -0.07186626      -0.00711326       0.33133849      -1.27775299       0.98792387
I       13.67732997       7.19728371      13.27513794      -0.01440547       0.05674617       0.07963330       0.51840670       0.80487025      -0.15325372
I        8.75834582      12.05393068      12.86227608      -0.10518253       0.38647030       0.49171105      -1.74381036      -0.24924011       0.33146128
I       13.55702433       8.00296104       9.02033318       0.29499650      -0.03371328      -0.11632708      -0.65468352      -0.60438866       1.25984881
I        8.58942758      11.84736559       8.72463966       0.04542252      -0.07372292       0.15565458       0.62405645       3.24817376      -1.58086336
I       12.59909845      11.02564052      14.88374922      -0.20458769      -0.03026441       0.04554428       0.33852286      -1.51605701      -0.12992009
I        9.86156879       8.65995956      11.34007684      -0.20593976       0.07893925      -0.14535679       1.54796772       1.58757128      -0.05660931
Cs       1.72506081      16.07655444       2.26380309      -0.13172838      -0.01041755       0.07786093      -2.07972188      -0.66643919       0.11218431
Cs       5.44821864      18.60569431       6.77306541       0.09274332      -0.11211875       0.00570714       0.51771087      -2.19925501       1.49424656
Cs       1.09798922      23.32519555      15.31141387      -0.02643296      -0.05283723      -0.01250203      -0.71648146      -0.99744641      -0.93161854
Cs       5.90937894      25.50980613       2.73483759      -0.10234514      -0.02986308      -0.11846725       0.85786956      -1.03249552      -1.09907618
Cs       9.08212709      15.62326490       2.47769878      -0.01794685       0.05302425       0.03650971      -0.33320231      -0.58587710      -0.12600502
Cs      13.24957550      18.26954179       6.68282070       0.00428685       0.08080518       0.02623017      -0.39762176      -1.81384401      -1.93913527
Cs       9.47326388      22.83929923      15.23870398       0.08793566       0.02935799       0.02213821      -3.31071845       0.49960452      -0.31413701
Cs      12.75077406      25.82363412       2.66766427       0.08480450       0.03419932       0.00591902      -0.90569390      -1.66555689      -1.72626045
Pb       2.82767433      27.94191867       6.69679068       0.02692822      -0.17754704      -0.09243259      -0.10316101       0.52976719      -1.84652414
Pb       6.77465899      27.75655854       6.79935739       0.10519764      -0.00340099      -0.23115400       0.93135503      -0.65517783       0.38157750
Pb       4.12646157      20.92688242       2.62152739       0.21706145      -0.15101751      -0.07023243      -1.40937449      -2.53274188       1.76456600
Pb       0.33229747      21.01678848       2.49888552      -0.38712569      -0.11181215       0.22050166       0.39671772       0.94785520       1.88774869
Pb      10.78874861      28.09556849       6.98441470      -0.03167532      -0.18067197      -0.19596375       1.01024015      -2.21767211      -4.95763276
Pb      14.65366258      28.07430113       6.98657439      -0.24546183       0.09110316      -0.19766468      -0.40450329       1.76294134      -1.94036140
Pb      11.96271422      20.67808433       2.47131937      -0.20379215      -0.08600279       0.27541470      -0.59369619      -0.66713398      -3.30441527
Pb       8.04385091      20.56641958       2.39769662       0.25854566      -0.02068545      -0.03832084       1.39959667       1.63673458      -0.80311257
I        4.76355793      14.77180968       0.38650241       0.16374484      -0.25742978      -0.18113787      -0.08153860      -0.73941210       0.71786968
I        2.18540022      19.94482192       0.23816259       0.06937854      -0.10655784      -0.14652083      -0.66374123       0.19793411       0.35541654
I        4.81935919      14.81320054       4.45072583      -0.05328593      -0.03339049       0.09231521      -1.76390777      -2.20139063       1.25457152
I        2.32334008      19.29086982       4.66753810      -0.28017056       0.14601746      -0.18614677      -0.71814693      -2.00797983      -0.53149140
I        6.01348921      18.16291467       2.40825477      -0.11857295      -0.01355899      -0.02872529      -0.60670890       1.16219945      -0.26834353
I        0.94976471      16.12081540       6.93485275       0.01986644       0.16096671      -0.00850338       0.42355263      -0.09236198      -0.02998328
I        6.52102106      21.88447299       4.69339116      -0.32262292       0.18275919       0.20149974       1.46934546       1.26896428       0.41933596
I        0.47784783      26.80383743       4.53522452       0.20261049       0.17550817      -0.02447221       0.41774569      -0.34589110      -0.15408544
I        5.77929419      21.76715643      17.14449938       0.04748920       0.19957587       0.04467882       0.00513689       0.42039218       0.62191878
I        0.85468513      26.50849087       0.34633525       0.16091064       0.06720869       0.13593587       1.72720810      -0.06131736       1.70716565
I        4.63447192      25.24527825       6.31301121       0.06392413       0.16791317       0.13482282       1.21324082      -1.29672279      -1.01618168
I        2.35508028      23.53914936       2.88917785       0.02167548       0.03181328       0.01483659       0.29299410       0.52849688       0.28245085
I       12.67479436      14.76430106       0.81647292      -0.09098596      -0.04291309      -0.13833015       0.18165404      -1.08286761       1.18132214
I        9.75839261      19.40204378      17.05667121       0.19174350      -0.02684597      -0.06861665       1.32712364       0.75682656      -1.08361338
I       12.36493524      15.41468445       4.82831554       0.12000424      -0.09279534       0.10884237      -2.27725405       0.94619437       0.39568571
I        9.93663742      18.98124497       4.51214448       0.05233990       0.07215547      -0.13706924      -0.17129550      -1.71062762      -0.20348078
I       14.06064648      18.42774240       2.21357314       0.38265709      -0.29513077      -0.03069907       0.23110848      -1.95859914      -1.88414550
I        8.52407485      15.95953994       7.00287692      -0.17200473      -0.07186626      -0.00711326       0.33133849      -1.27775299       0.98792387
I       13.88696576      21.71205792       4.92709146      -0.01440547       0.05674617       0.07963330       0.51840670       0.80487025      -0.15325372
I        8.96798161      26.56870489       4.51422960      -0.10518253       0.38647030       0.49171105      -1.74381036      -0.24924011       0.33146128
I       13.76666012      22.51773525       0.67228670       0.29499650      -0.03371328      -0.11632708      -0.65468352      -0.60438866       1.25984881
I        8.79906337      26.36213980       0.37659318       0.04542252      -0.07372292       0.15565458       0.62405645       3.24817376      -1.58086336
I       12.80873424      25.54041473       6.53570274      -0.20458769      -0.03026441       0.04554428       0.33852286      -1.51605701      -0.12992009
I       10.07120458      23.17473377       2.99203036      -0.20593976       0.07893925      -0.14535679       1.54796772       1.58757128      -0.05660931
Cs       1.58507020      16.00536296      10.74079389      -0.13172838      -0.01041755       0.07786093      -2.07972188      -0.66643919       0.11218431
Cs       5.30822803      18.53450283      15.25005621       0.09274332      -0.11211875       0.00570714       0.51771087      -2.19925501       1.49424656
Cs       1.23797984      23.39638703       6.83442307      -0.02643296      -0.05283723      -0.01250203      -0.71648146      -0.99744641      -0.93161854
Cs       5.76938833      25.43861465      11.21182839      -0.10234514      -0.02986308      -0.11846725       0.85786956      -1.03249552      -1.09907618
Cs       8.94213648      15.55207342      10.95468958      -0.01794685       0.05302425       0.03650971      -0.33320231      -0.58587710      -0.12600502
Cs      13.10958489      18.19835031      15.15981150       0.00428685       0.08080518       0.02623017      -0.39762176      -1.81384401      -1.93913527
Cs       9.61325450      22.91049071       6.76171318       0.08793566       0.02935799       0.02213821      -3.31071845       0.49960452      -0.31413701
Cs      12.61078345      25.75244264      11.14465507       0.08480450       0.03419932       0.00591902      -0.90569390      -1.66555689      -1.72626045
Pb       2.68768372      27.87072719      15.17378148       0.02692822      -0.17754704      -0.09243259      -0.10316101       0.52976719      -1.84652414
Pb       6.63466838      27.68536706      15.27634819       0.10519764      -0.00340099      -0.23115400       0.93135503      -0.65517783       0.38157750
Pb       3.98647096      20.85569094      11.09851819       0.21706145      -0.15101751      -0.07023243      -1.40937449      -2.53274188       1.76456600
Pb       0.19230686      20.94559700      10.97587632      -0.38712569      -0.11181215       0.22050166       0.39671772       0.94785520       1.88774869
Pb      10.64875800      28.02437701      15.46140550      -0.03167532      -0.18067197      -0.19596375       1.01024015      -2.21767211      -4.95763276
Pb      14.51367197      28.00310965      15.46356519      -0.24546183       0.09110316      -0.19766468      -0.40450329       1.76294134      -1.94036140
Pb      11.82272361      20.60689285      10.94831017      -0.20379215      -0.08600279       0.27541470      -0.59369619      -0.66713398      -3.30441527
Pb       7.90386030      20.49522810      10.87468742       0.25854566      -0.02068545      -0.03832084       1.39959667       1.63673458      -0.80311257
I        4.62356732      14.70061820       8.86349321       0.16374484      -0.25742978      -0.18113787      -0.08153860      -0.73941210       0.71786968
I        2.04540961      19.87363044       8.71515339       0.06937854      -0.10655784      -0.14652083      -0.66374123       0.19793411       0.35541654
I        4.67936858      14.74200906      12.92771663      -0.05328593      -0.03339049       0.09231521      -1.76390777      -2.20139063       1.25457152
I        2.18334947      19.21967834      13.14452890      -0.28017056       0.14601746      -0.18614677      -0.71814693      -2.00797983      -0.53149140
I        5.87349860      18.09172319      10.88524557      -0.11857295      -0.01355899      -0.02872529      -0.60670890       1.16219945      -0.26834353
I        0.80977410      16.04962392      15.41184355       0.01986644       0.16096671      -0.00850338       0.42355263      -0.09236198      -0.02998328
I        6.38103045      21.81328151      13.17038196      -0.32262292       0.18275919       0.20149974       1.46934546       1.26896428       0.41933596
I        0.33785722      26.73264595      13.01221532       0.20261049       0.17550817      -0.02447221       0.41774569      -0.34589110      -0.15408544
I        5.91928481      21.83834791       8.66750858       0.04748920       0.19957587       0.04467882       0.00513689       0.42039218       0.62191878
I        0.71469452      26.43729939       8.82332605       0.16091064       0.06720869       0.13593587       1.72720810      -0.06131736       1.70716565
I        4.49448131      25.17408677      14.79000201       0.06392413       0.16791317       0.13482282       1.21324082      -1.29672279      -1.01618168
I        2.21508967      23.46795788      11.36616865       0.02167548       0.03181328       0.01483659       0.29299410       0.52849688       0.28245085
I       12.53480375      14.69310958       9.29346372      -0.09098596      -0.04291309      -0.13833015       0.18165404      -1.08286761       1.18132214
I        9.89838323      19.47323526       8.57968041       0.19174350      -0.02684597      -0.06861665       1.32712364       0.75682656      -1.08361338
I       12.22494463      15.34349297      13.30530634       0.12000424      -0.09279534       0.10884237      -2.27725405       0.94619437       0.39568571
I        9.79664681      18.91005349      12.98913528       0.05233990       0.07215547      -0.13706924      -0.17129550      -1.71062762      -0.20348078
I       13.92065587      18.35655092      10.69056394       0.38265709      -0.29513077      -0.03069907       0.23110848      -1.95859914      -1.88414550
I        8.38408424      15.88834846      15.47986772      -0.17200473      -0.07186626      -0.00711326       0.33133849      -1.27775299       0.98792387
I       13.74697515      21.64086644      13.40408226      -0.01440547       0.05674617       0.07963330       0.51840670       0.80487025      -0.15325372
I        8.82799100      26.49751341      12.99122040      -0.10518253       0.38647030       0.49171105      -1.74381036      -0.24924011       0.33146128
I       13.62666951      22.44654377       9.14927750       0.29499650      -0.03371328      -0.11632708      -0.65468352      -0.60438866       1.25984881
I        8.65907276      26.29094832       8.85358398       0.04542252      -0.07372292       0.15565458       0.62405645       3.24817376      -1.58086336
I       12.66874363      25.46922325      15.01269354      -0.20458769      -0.03026441       0.04554428       0.33852286      -1.51605701      -0.12992009
I        9.93121397      23.10354229      11.46902116      -0.20593976       0.07893925      -0.14535679       1.54796772       1.58757128      -0.05660931
Cs      17.35173388       1.61056363       2.18231883      -0.13172838      -0.01041755       0.07786093      -2.07972188      -0.66643919       0.11218431
Cs      21.07489171       4.13970350       6.69158115       0.09274332      -0.11211875       0.00570714       0.51771087      -2.19925501       1.49424656
Cs      16.72466230       8.85920474      15.22992961      -0.02643296      -0.05283723      -0.01250203      -0.71648146      -0.99744641      -0.93161854
Cs      21.53605201      11.04381532       2.65335333      -0.10234514      -0.02986308      -0.11846725       0.85786956      -1.03249552      -1.09907618
Cs      24.70880016       1.15727409       2.39621452      -0.01794685       0.05302425       0.03650971      -0.33320231      -0.58587710      -0.12600502
Cs      28.87624857       3.80355098       6.60133644       0.00428685       0.08080518       0.02623017      -0.39762176      -1.81384401      -1.93913527
Cs      25.09993696       8.37330842      15.15721972       0.08793566       0.02935799       0.02213821      -3.31071845       0.49960452      -0.31413701
Cs      28.37744713      11.35764331       2.58618001       0.08480450       0.03419932       0.00591902      -0.90569390      -1.66555689      -1.72626045
Pb      18.45434740      13.47592786       6.61530642       0.02692822      -0.17754704      -0.09243259      -0.10316101       0.52976719      -1.84652414
Pb      22.40133206      13.29056773       6.71787313       0.10519764      -0.00340099      -0.23115400       0.93135503      -0.65517783       0.38157750
Pb      19.75313464       6.46089161       2.54004313       0.21706145      -0.15101751      -0.07023243      -1.40937449      -2.53274188       1.76456600
Pb      15.95897054       6.55079767       2.41740126      -0.38712569      -0.11181215       0.22050166       0.39671772       0.94785520       1.88774869
Pb      26.41542168      13.62957768       6.90293044      -0.03167532      -0.18067197      -0.19596375       1.01024015      -2.21767211      -4.95763276
Pb      30.28033565      13.60831032       6.90509013      -0.24546183       0.09110316      -0.19766468      -0.40450329       1.76294134      -1.94036140
Pb      27.58938729       6.21209352       2.38983511      -0.20379215      -0.08600279       0.27541470      -0.59369619      -0.66713398      -3.30441527
Pb      23.67052398       6.10042877       2.31621236       0.25854566      -0.02068545      -0.03832084       1.39959667       1.63673458      -0.80311257
I       20.39023100       0.30581887       0.30501815       0.16374484      -0.25742978      -0.18113787      -0.08153860      -0.73941210       0.71786968
I       17.81207329       5.47883111       0.15667833       0.06937854      -0.10655784      -0.14652083      -0.66374123       0.19793411       0.35541654
I       20.44603226       0.34720973       4.36924157      -0.05328593      -0.03339049       0.09231521      -1.76390777      -2.20139063       1.25457152
I       17.95001315       4.82487901       4.58605384      -0.28017056       0.14601746      -0.18614677      -0.71814693      -2.00797983      -0.53149140
I       21.64016228       3.69692386       2.32677051      -0.11857295      -0.01355899      -0.02872529      -0.60670890       1.16219945      -0.26834353
I       16.57643778       1.65482459       6.85336849       0.01986644       0.16096671      -0.00850338       0.42355263      -0.09236198      -0.02998328
I       22.14769413       7.41848218       4.61190690      -0.32262292       0.18275919       0.20149974       1.46934546       1.26896428       0.41933596
I       16.10452090      12.33784662       4.45374026       0.20261049       0.17550817      -0.02447221       0.41774569      -0.34589110      -0.15408544
I       21.40596727       7.30116562      17.06301512       0.04748920       0.19957587       0.04467882       0.00513689       0.42039218       0.62191878
I       16.48135820      12.04250006       0.26485099       0.16091064       0.06720869       0.13593587       1.72720810      -0.06131736       1.70716565
I       20.26114499      10.77928744       6.23152695       0.06392413       0.16791317       0.13482282       1.21324082      -1.29672279      -1.01618168
I       17.98175335       9.07315855       2.80769359       0.02167548       0.03181328       0.01483659       0.29299410       0.52849688       0.28245085
I       28.30146743       0.29831025       0.73498866      -0.09098596      -0.04291309      -0.13833015       0.18165404      -1.08286761       1.18132214
I       25.38506569       4.93605297      16.97518695       0.19174350      -0.02684597      -0.06861665       1.32712364       0.75682656      -1.08361338