320
Lattice="35.78794042575779 -0.37839846603646177 -0.24217113649280456 0.2257959835333163 21.00955516298944 -0.015306901360210465 0.11054213265190213 0.01896394099226511 19.312856914076352" Properties=species:S:1:pos:R:3:forces:R:3:momenta:R:3 energy=-995.6466239512513 stress="0.001466121264377888 6.8271489986641106e-06 -4.4710077974875475e-05 6.8271489986641106e-06 0.0014457103841279252 2.027875628589358e-05 -4.4710077974875475e-05 2.027875628589358e-05 0.0014216927969379106" free_energy=-995.6466239512513 pbc="T T T"
Cs       7.32804350       3.59222539       5.95063906       0.00001087       0.00000338       0.00000714      -1.98841226       0.13351983      -0.52705769
Cs      13.56748946      12.30119955       3.48731996      -0.00000738       0.00001334      -0.00000248       1.01510367      -1.00283537       0.24143178
Cs       4.59654249       8.87416158       5.96507380      -0.00000128      -0.00003573      -0.00001752      -0.99172924      -0.36949077       2.32114725
Cs      16.29899951       7.01932124       3.47291584      -0.00000749       0.00000827      -0.00000734       0.31593123      -1.69738492       0.83932456
Cs       7.35572584       3.59698075      10.77886299      -0.00002350       0.00000504      -0.00000110      -0.64295594      -0.58966211       0.75870471
Cs      13.59511431      12.30597470       8.31552184      -0.00000648      -0.00001870       0.00001207      -0.41422507      -1.57159547       0.69023574
Cs       4.62415636       8.87885797      10.79328886       0.00001237      -0.00000096      -0.00001178       1.40974853      -1.10803641       0.48443312
Cs      16.32660182       7.02406189       8.30112456       0.00002031       0.00000534       0.00001411      -0.70952953       0.39910365       0.20543878
Pb       2.54843300       4.46570503       3.56833941      -0.00001647       0.00004154      -0.00002014       1.56801137       1.89900519      -2.00733891
Pb      18.34711837      11.42773188       5.86965025      -0.00001488      -0.00002332      -0.00000729      -0.55737692       1.79613382       1.99317474
Pb       9.36610464       9.64669356       3.51746159      -0.00002583      -0.00000054       0.00000977       1.24229872      -0.42473566       1.17277681
Pb      11.52943687       6.24677115       5.92048578      -0.00002283      -0.00000327      -0.00001899      -1.88410784      -2.61314005      -2.72585566
Pb       2.57602407       4.47049294       8.39654295       0.00001327       0.00001323       0.00002202       1.13364054       0.08586953       1.67622002
Pb      18.37478178      11.43247948      10.69785581      -0.00002099      -0.00002818       0.00000115      -0.79218870       0.33668073      -1.34569530
Pb       9.39370526       9.65146451       8.34568101       0.00004302      -0.00003567       0.00001342      -2.02978258      -5.69249339      -0.43098721
Pb      11.55706860       6.25147574      10.74869464       0.00001133       0.00000002      -0.00000739       2.01025357      -1.54195171      -0.78488077
I        1.46628608       6.34231349       5.98746057       0.00001055      -0.00000355       0.00002262       0.16140550      -1.36205839       0.21363115
I        1.53528281       9.74036012       3.57158438      -0.00000590       0.00000055      -0.00001229      -1.09183704      -0.91994171       0.62040030
I       10.51584126      11.49939001       5.92304107       0.00000209      -0.00000200       0.00001411      -0.85923458       2.29172821       0.20351595
I       10.37970134       4.39404781       3.51491568      -0.00000501       0.00002475      -0.00000887      -1.04944458      -0.35051238      -0.32674245
I       17.33086399       2.95830889       3.46650402      -0.00000183      -0.00000943       0.00000291       2.69772048      -0.10504380       0.80695483
I        3.56467167      12.93514983       5.97149643       0.00000990      -0.00000240      -0.00000189      -0.45251433      -2.38013539       1.62109061
I       12.44882435       8.26255741       3.49907534      -0.00000301      -0.00000707       0.00001235      -0.20684232       2.51378145       0.84014252
I        8.44670208       7.63090291       5.93885337       0.00000989       0.00000234       0.00000533       2.65397966       1.23103108       1.78015834
I        5.30721210       5.89155643       3.54806628      -0.00001414      -0.00002260      -0.00000374       0.00730227       1.53156269       0.92804070
I       15.58833558      10.00187436       5.88991661       0.00000742       0.00004945       0.00000208       1.43718702       3.25043010       0.93185365
I        6.63831301      11.13073497       3.53607146      -0.00000994       0.00001745      -0.00001020      -1.95170836      -0.23466089      -0.96981006
I       14.25720541       4.76271241       5.90187807       0.00004017      -0.00001440       0.00000928      -0.80286435      -1.46910199       1.52692389
I        1.49391645       6.34704774      10.81573014       0.00001010      -0.00000445      -0.00000578       0.43781778       1.08138660      -1.45995922
I        1.56290393       9.74508084       8.39978307      -0.00000532      -0.00000428      -0.00000343       0.12914431       0.65518284      -0.12927343
I       10.54346938      11.50414856      10.75127105       0.00001213      -0.00001173       0.00000314       0.89100968      -0.53784459      -0.98351232
I       10.40732545       4.39879299       8.34309457       0.00000170       0.00001068      -0.00001142      -1.51383888       0.88445415       0.16207027
I       17.35848048       2.96304814       8.29473478      -0.00000189       0.00000148      -0.00002234       0.35822864       2.21712009      -1.23662352
I        3.59233061      12.93989898      10.79964872      -0.00000489       0.00000808       0.00002381      -0.43546378       0.28204912      -0.38615713
I       12.47643574       8.26730417       8.32733673       0.00001139       0.00000308      -0.00000856       0.43770654       0.53219420      -1.22076350
I        8.47435512       7.63563217      10.76704563      -0.00000895       0.00000498       0.00001970       0.74783947       0.53218745      -0.10901143
I        5.33482206       5.89629941       8.37627827       0.00000523      -0.00001711      -0.00001209      -0.97184992       0.25904504      -0.63232036
I       15.61598718      10.00665283      10.71812611       0.00000600       0.00001364      -0.00000358      -1.30551038       1.09480126      -1.30114308
I        6.66592798      11.13549259       8.36431075      -0.00002370       0.00002621      -0.00000887       0.07239738       0.14035753      -0.62159657
I       14.28486621       4.76744364      10.73010259      -0.00000603      -0.00000744       0.00001206      -1.82864136       0.35992883       0.99667311
Cs       7.38331457       3.60170736      15.60706752       0.00001086       0.00000338       0.00000714      -1.98841226       0.13351983      -0.52705769
Cs      13.62276053      12.31068152      13.14374842      -0.00000738       0.00001334      -0.00000248       1.01510367      -1.00283537       0.24143178
Cs       4.65181356       8.88364355      15.62150226      -0.00000129      -0.00003573      -0.00001752      -0.99172924      -0.36949077       2.32114725
Cs      16.35427058       7.02880321      13.12934430      -0.00000749       0.00000827      -0.00000734       0.31593123      -1.69738492       0.83932456
Cs       7.30045477       3.58749878       1.12243453      -0.00002350       0.00000504      -0.00000110      -0.64295594      -0.58966211       0.75870471
Cs      13.65038538      12.31545667      17.97195030      -0.00000649      -0.00001870       0.00001207      -0.41422507      -1.57159547       0.69023574
Cs       4.56888529       8.86937600       1.13686040       0.00001237      -0.00000096      -0.00001178       1.40974853      -1.10803641       0.48443312
Cs      16.38187289       7.03354386      17.95755302       0.00002031       0.00000534       0.00001411      -0.70952953       0.39910365       0.20543878
Pb       2.60370407       4.47518700      13.22476787      -0.00001647       0.00004154      -0.00002014       1.56801137       1.89900519      -2.00733891
Pb      18.40238944      11.43721385      15.52607871      -0.00001488      -0.00002332      -0.00000729      -0.55737692       1.79613382       1.99317474
Pb       9.42137571       9.65617553      13.17389005      -0.00002583      -0.00000054       0.00000977       1.24229872      -0.42473566       1.17277681
Pb      11.58470794       6.25625312      15.57691424      -0.00002283      -0.00000327      -0.00001900      -1.88410784      -2.61314005      -2.72585566
Pb       2.63129514       4.47997491      18.05297141       0.00001327       0.00001323       0.00002201       1.13364054       0.08586953       1.67622002
Pb      18.31951071      11.42299751       1.04142735      -0.00002098      -0.00002819       0.00000116      -0.79218870       0.33668073      -1.34569530
Pb       9.44897633       9.66094648      18.00210947       0.00004301      -0.00003567       0.00001341      -2.02978258      -5.69249339      -0.43098721
Pb      11.50179753       6.24199377       1.09226618       0.00001133       0.00000002      -0.00000737       2.01025357      -1.54195171      -0.78488077
I        1.52155715       6.35179546      15.64388903       0.00001055      -0.00000354       0.00002262       0.16140550      -1.36205839       0.21363115
I        1.59055388       9.74984209      13.22801284      -0.00000591       0.00000055      -0.00001229      -1.09183704      -0.91994171       0.62040030
I       10.57111233      11.50887198      15.57946953       0.00000209      -0.00000200       0.00001411      -0.85923458       2.29172821       0.20351595
I       10.43497241       4.40352978      13.17134414      -0.00000501       0.00002475      -0.00000887      -1.04944458      -0.35051238      -0.32674245
I       17.38613506       2.96779086      13.12293248      -0.00000184      -0.00000943       0.00000291       2.69772048      -0.10504380       0.80695483
I        3.61994274      12.94463180      15.62792489       0.00000989      -0.00000240      -0.00000189      -0.45251433      -2.38013539       1.62109061
I       12.50409542       8.27203938      13.15550380      -0.00000302      -0.00000708       0.00001235      -0.20684232       2.51378145       0.84014252
I        8.50197315       7.64038488      15.59528183       0.00000989       0.00000234       0.00000533       2.65397966       1.23103108       1.78015834
I        5.36248317       5.90103840      13.20449474      -0.00001414      -0.00002260      -0.00000373       0.00730227       1.53156269       0.92804070
I       15.64360665      10.01135633      15.54634507       0.00000742       0.00004945       0.00000208       1.43718702       3.25043010       0.93185365
I        6.69358408      11.14021694      13.19249992      -0.00000994       0.00001745      -0.00001020      -1.95170836      -0.23466089      -0.96981006
I       14.31247648       4.77219438      15.55830653       0.00004017      -0.00001440       0.00000928      -0.80286435      -1.46910199       1.52692389
I        1.43864538       6.33756577       1.15930168       0.00001010      -0.00000445      -0.00000577       0.43781778       1.08138660      -1.45995922
I        1.61817500       9.75456281      18.05621153      -0.00000533      -0.00000428      -0.00000344       0.12914431       0.65518284      -0.12927343
I       10.48819831      11.49466659       1.09484259       0.00001214      -0.00001172       0.00000315       0.89100968      -0.53784459      -0.98351232
I       10.46259652       4.40827496      17.99952303       0.00000169       0.00001067      -0.00001143      -1.51383888       0.88445415       0.16207027
I       17.41375155       2.97253011      17.95116324      -0.00000190       0.00000149      -0.00002235       0.35822864       2.21712009      -1.23662352
I        3.53705954      12.93041701       1.14322026      -0.00000488       0.00000808       0.00002382      -0.43546378       0.28204912      -0.38615713
I       12.53170681       8.27678614      17.98376519       0.00001139       0.00000308      -0.00000856       0.43770654       0.53219420      -1.22076350
I        8.41908405       7.62615020       1.11061717      -0.00000895       0.00000497       0.00001971       0.74783947       0.53218745      -0.10901143
I        5.39009313       5.90578138      18.03270673       0.00000523      -0.00001711      -0.00001209      -0.97184992       0.25904504      -0.63232036
I       15.56071611       9.99717086       1.06169765       0.00000601       0.00001365      -0.00000358      -1.30551038       1.09480126      -1.30114308
I        6.72119905      11.14497456      18.02073921      -0.00002370       0.00002621      -0.00000888       0.07239738       0.14035753      -0.62159657
I       14.22959514       4.75796167       1.07367413      -0.00000603      -0.00000744       0.00001206      -1.82864136       0.35992883       0.99667311
Cs       7.44094149      14.09700297       5.94298561       0.00001087       0.00000338       0.00000714      -1.98841226       0.13351983      -0.52705769
Cs      13.45459147       1.79642197       3.49497341      -0.00000738       0.00001334      -0.00000248       1.01510367      -1.00283537       0.24143178
Cs       4.70944048      19.37893916       5.95742035      -0.00000128      -0.00003573      -0.00001752      -0.99172924      -0.36949077       2.32114725
Cs      16.41189750      17.52409882       3.46526239      -0.00000748       0.00000828      -0.00000734       0.31593123      -1.69738492       0.83932456
Cs       7.46862383      14.10175833      10.77120954      -0.00002350       0.00000504      -0.00000111      -0.64295594      -0.58966211       0.75870471
Cs      13.48221632       1.80119712       8.32317529      -0.00000648      -0.00001871       0.00001207      -0.41422507      -1.57159547       0.69023574
Cs       4.73705435      19.38363555      10.78563541       0.00001237      -0.00000096      -0.00001178       1.40974853      -1.10803641       0.48443312
Cs      16.43949981      17.52883947       8.29347111       0.00002031       0.00000534       0.00001411      -0.70952953       0.39910365       0.20543878
Pb       2.66133099      14.97048261       3.56068596      -0.00001647       0.00004153      -0.00002014       1.56801137       1.89900519      -2.00733891
Pb      18.23422038       0.92295430       5.87730370      -0.00001489      -0.00002332      -0.00000729      -0.55737692       1.79613382       1.99317474
Pb       9.47900263      20.15147114       3.50980814      -0.00002582      -0.00000053       0.00000978       1.24229872      -0.42473566       1.17277681
Pb      11.64233486      16.75154873       5.91283233      -0.00002283      -0.00000327      -0.00001899      -1.88410784      -2.61314005      -2.72585566
Pb       2.68892206      14.97527052       8.38888950       0.00001327       0.00001323       0.00002202       1.13364054       0.08586953       1.67622002
Pb      18.26188379       0.92770190      10.70550926      -0.00002100      -0.00002819       0.00000115      -0.79218870       0.33668073      -1.34569530
Pb       9.50660325      20.15624209       8.33802756       0.00004303      -0.00003566       0.00001342      -2.02978258      -5.69249339      -0.43098721
Pb      11.66996659      16.75625332      10.74104119       0.00001133       0.00000001      -0.00000739       2.01025357      -1.54195171      -0.78488077
I        1.57918407      16.84709107       5.97980712       0.00001055      -0.00000355       0.00002262       0.16140550      -1.36205839       0.21363115
I        1.64818080      20.24513770       3.56393093      -0.00000590       0.00000055      -0.00001229      -1.09183704      -0.91994171       0.62040030
I       10.40294327       0.99461243       5.93069452       0.00000209      -0.00000201       0.00001411      -0.85923458       2.29172821       0.20351595
I       10.49259933      14.89882539       3.50726223      -0.00000501       0.00002475      -0.00000887      -1.04944458      -0.35051238      -0.32674245
I       17.44376198      13.46308647       3.45885057      -0.00000183      -0.00000943       0.00000291       2.69772048      -0.10504380       0.80695483
I        3.45177368       2.43037225       5.97914988       0.00000990      -0.00000240      -0.00000189      -0.45251433      -2.38013539       1.62109061
I       12.56172234      18.76733499       3.49142189      -0.00000301      -0.00000707       0.00001235      -0.20684232       2.51378145       0.84014252
I        8.55960007      18.13568049       5.93119992       0.00000989       0.00000234       0.00000533       2.65397966       1.23103108       1.78015834
I        5.42011009      16.39633401       3.54041283      -0.00001413      -0.00002260      -0.00000374       0.00730227       1.53156269       0.92804070
I       15.70123357      20.50665194       5.88226316       0.00000743       0.00004946       0.00000208       1.43718702       3.25043010       0.93185365
I        6.52541502       0.62595739       3.54372491      -0.00000994       0.00001745      -0.00001020      -1.95170836      -0.23466089      -0.96981006
I       14.37010340      15.26748999       5.89422462       0.00004017      -0.00001440       0.00000928      -0.80286435      -1.46910199       1.52692389
I        1.60681444      16.85182532      10.80807669       0.00001010      -0.00000445      -0.00000578       0.43781778       1.08138660      -1.45995922
I        1.67580192      20.24985842       8.39212962      -0.00000532      -0.00000427      -0.00000343       0.12914431       0.65518284      -0.12927343
I       10.43057139       0.99937098      10.75892450       0.00001212      -0.00001174       0.00000314       0.89100968      -0.53784459      -0.98351232
I       10.52022344      14.90357057       8.33544112       0.00000170       0.00001068      -0.00001142      -1.51383888       0.88445415       0.16207027
I       17.47137847      13.46782572       8.28708133      -0.00000189       0.00000148      -0.00002234       0.35822864       2.21712009      -1.23662352
I        3.47943262       2.43512140      10.80730217      -0.00000489       0.00000808       0.00002381      -0.43546378       0.28204912      -0.38615713
I       12.58933373      18.77208175       8.31968328       0.00001139       0.00000308      -0.00000856       0.43770654       0.53219420      -1.22076350
I        8.58725311      18.14040975      10.75939218      -0.00000895       0.00000498       0.00001970       0.74783947       0.53218745      -0.10901143
I        5.44772005      16.40107699       8.36862482       0.00000523      -0.00001711      -0.00001209      -0.97184992       0.25904504      -0.63232036
I       15.72888517      20.51143041      10.71047266       0.00000601       0.00001365      -0.00000358      -1.30551038       1.09480126      -1.30114308
I        6.55302999       0.63071501       8.37196420      -0.00002371       0.00002621      -0.00000887       0.07239738       0.14035753      -0.62159657
I       14.39776420      15.27222122      10.72244914      -0.00000603      -0.00000744       0.00001206      -1.82864136       0.35992883       0.99667311
Cs       7.49621256      14.10648494      15.59941407       0.00001087       0.00000338       0.00000714      -1.98841226       0.13351983      -0.52705769
Cs      13.50986253       1.80590394      13.15140187      -0.00000737       0.00001334      -0.00000248       1.01510367      -1.00283537       0.24143178
Cs       4.76471155      19.38842113      15.61384881      -0.00000129      -0.00003573      -0.00001752      -0.99172924      -0.36949077       2.32114725
Cs      16.46716857      17.53358079      13.12169085      -0.00000749       0.00000827      -0.00000735       0.31593123      -1.69738492       0.83932456
Cs       7.41335277      14.09227636       1.11478108      -0.00002351       0.00000504      -0.00000110      -0.64295594      -0.58966211       0.75870471
Cs      13.53748738       1.81067909      17.97960375      -0.00000648      -0.00001871       0.00001207      -0.41422507      -1.57159547       0.69023574
Cs       4.68178329      19.37415358       1.12920695       0.00001236      -0.00000096      -0.00001178       1.40974853      -1.10803641       0.48443312
Cs      16.49477088      17.53832144      17.94989957       0.00002031       0.00000534       0.00001411      -0.70952953       0.39910365       0.20543878
Pb       2.71660206      14.97996458      13.21711442      -0.00001647       0.00004153      -0.00002013       1.56801137       1.89900519      -2.00733891
Pb      18.28949144       0.93243627      15.53373216      -0.00001485      -0.00002332      -0.00000729      -0.55737692       1.79613382       1.99317474
Pb       9.53427370      20.16095311      13.16623660      -0.00002585      -0.00000053       0.00000977       1.24229872      -0.42473566       1.17277681
Pb      11.69760593      16.76103070      15.56926079      -0.00002283      -0.00000328      -0.00001900      -1.88410784      -2.61314005      -2.72585566
Pb       2.74419313      14.98475249      18.04531796       0.00001328       0.00001323       0.00002201       1.13364054       0.08586953       1.67622002
Pb      18.20661272       0.91821993       1.04908080      -0.00002098      -0.00002819       0.00000116      -0.79218870       0.33668073      -1.34569530
Pb       9.56187432      20.16572406      17.99445602       0.00004300      -0.00003566       0.00001341      -2.02978258      -5.69249339      -0.43098721
Pb      11.61469553      16.74677135       1.08461273       0.00001132       0.00000001      -0.00000737       2.01025357      -1.54195171      -0.78488077
I        1.63445514      16.85657304      15.63623558       0.00001055      -0.00000354       0.00002262       0.16140550      -1.36205839       0.21363115
I        1.70345187      20.25461967      13.22035939      -0.00000591       0.00000055      -0.00001229      -1.09183704      -0.91994171       0.62040030
I       10.45821433       1.00409440      15.58712298       0.00000210      -0.00000200       0.00001411      -0.85923458       2.29172821       0.20351595
I       10.54787040      14.90830736      13.16369069      -0.00000501       0.00002475      -0.00000887      -1.04944458      -0.35051238      -0.32674245
I       17.49903305      13.47256844      13.11527903      -0.00000183      -0.00000943       0.00000291       2.69772048      -0.10504380       0.80695483
I        3.50704474       2.43985422      15.63557834       0.00000991      -0.00000241      -0.00000189      -0.45251433      -2.38013539       1.62109061
I       12.61699341      18.77681696      13.14785035      -0.00000302      -0.00000707       0.00001235      -0.20684232       2.51378145       0.84014252
I        8.61487114      18.14516246      15.58762838       0.00000989       0.00000234       0.00000533       2.65397966       1.23103108       1.78015834
I        5.47538116      16.40581598      13.19684129      -0.00001414      -0.00002260      -0.00000374       0.00730227       1.53156269       0.92804070
I       15.75650464      20.51613391      15.53869162       0.00000741       0.00004945       0.00000208       1.43718702       3.25043010       0.93185365
I        6.58068608       0.63543936      13.20015337      -0.00000992       0.00001744      -0.00001020      -1.95170836      -0.23466089      -0.96981006
I       14.42537447      15.27697196      15.55065308       0.00004017      -0.00001440       0.00000928      -0.80286435      -1.46910199       1.52692389
I        1.55154338      16.84234335       1.15164823       0.00001009      -0.00000444      -0.00000577       0.43781778       1.08138660      -1.45995922
I        1.73107299      20.25934039      18.04855808      -0.00000532      -0.00000427      -0.00000344       0.12914431       0.65518284      -0.12927343
I       10.37530032       0.98988901       1.10249604       0.00001213      -0.00001173       0.00000315       0.89100968      -0.53784459      -0.98351232
I       10.57549451      14.91305254      17.99186958       0.00000170       0.00001067      -0.00001143      -1.51383888       0.88445415       0.16207027
I       17.52664954      13.47730769      17.94350979      -0.00000190       0.00000148      -0.00002235       0.35822864       2.21712009      -1.23662352
I        3.42416155       2.42563943       1.15087371      -0.00000488       0.00000808       0.00002382      -0.43546378       0.28204912      -0.38615713
I       12.64460480      18.78156372      17.97611174       0.00001139       0.00000308      -0.00000856       0.43770654       0.53219420      -1.22076350
I        8.53198205      18.13092778       1.10296372      -0.00000896       0.00000497       0.00001970       0.74783947       0.53218745      -0.10901143
I        5.50299112      16.41055896      18.02505328       0.00000523      -0.00001711      -0.00001209      -0.97184992       0.25904504      -0.63232036
I       15.67361411      20.50194844       1.05404420       0.00000598       0.00001364      -0.00000358      -1.30551038       1.09480126      -1.30114308
I        6.60830105       0.64019698      18.02839266      -0.00002368       0.00002620      -0.00000888       0.07239738       0.14035753      -0.62159657
I       14.34249314      15.26273925       1.06602068      -0.00000604      -0.00000744       0.00001206      -1.82864136       0.35992883       0.99667311
Cs      25.22201371       3.40302616       5.82955349       0.00001087       0.00000338       0.00000714      -1.98841226       0.13351983      -0.52705769
Cs      31.46145967      12.11200032       3.36623439      -0.00000737       0.00001334      -0.00000248       1.01510367      -1.00283537       0.24143178
Cs      22.49051270       8.68496235       5.84398823      -0.00000129      -0.00003573      -0.00001752      -0.99172924      -0.36949077       2.32114725
Cs      34.19296972       6.83012201       3.35183027      -0.00000748       0.00000827      -0.00000734       0.31593123      -1.69738492       0.83932456
Cs      25.24969605       3.40778152      10.65777742      -0.00002350       0.00000504      -0.00000111      -0.64295594      -0.58966211       0.75870471
Cs      31.48908452      12.11677547       8.19443627      -0.00000648      -0.00001870       0.00001207      -0.41422507      -1.57159547       0.69023574
Cs      22.51812657       8.68965874      10.67220329       0.00001237      -0.00000096      -0.00001178       1.40974853      -1.10803641       0.48443312
Cs      34.22057203       6.83486266       8.18003899       0.00002031       0.00000534       0.00001412      -0.70952953       0.39910365       0.20543878
Pb      20.44240321       4.27650580       3.44725384      -0.00001646       0.00004153      -0.00002014       1.56801137       1.89900519      -2.00733891
Pb       0.45314816      11.61693111       5.99073582      -0.00001489      -0.00002330      -0.00000729      -0.55737692       1.79613382       1.99317474
Pb      27.26007485       9.45749433       3.39637602      -0.00002583      -0.00000053       0.00000978       1.24229872      -0.42473566       1.17277681
Pb      29.42340708       6.05757192       5.79940021      -0.00002283      -0.00000327      -0.00001899      -1.88410784      -2.61314005      -2.72585566
Pb      20.46999428       4.28129371       8.27545738       0.00001328       0.00001323       0.00002202       1.13364054       0.08586953       1.67622002
Pb       0.48081157      11.62167871      10.81894138      -0.00002100      -0.00002817       0.00000115      -0.79218870       0.33668073      -1.34569530
Pb      27.28767547       9.46226528       8.22459544       0.00004302      -0.00003567       0.00001342      -2.02978258      -5.69249339      -0.43098721
Pb      29.45103881       6.06227651      10.62760907       0.00001133       0.00000001      -0.00000739       2.01025357      -1.54195171      -0.78488077
I       19.36025629       6.15311426       5.86637500       0.00001055      -0.00000355       0.00002262       0.16140550      -1.36205839       0.21363115
I       19.42925302       9.55116089       3.45049881      -0.00000590       0.00000054      -0.00001229      -1.09183704      -0.91994171       0.62040030
I       28.40981147      11.31019078       5.80195550       0.00000209      -0.00000200       0.00001411      -0.85923458       2.29172821       0.20351595
I       28.27367155       4.20484858       3.39383011      -0.00000501       0.00002475      -0.00000887      -1.04944458      -0.35051238      -0.32674245
I       35.22483420       2.76910966       3.34541845      -0.00000182      -0.00000945       0.00000292       2.69772048      -0.10504380       0.80695483
I       21.45864188      12.74595060       5.85041086       0.00000990      -0.00000240      -0.00000189      -0.45251433      -2.38013539       1.62109061
I       30.34279456       8.07335818       3.37798977      -0.00000301      -0.00000707       0.00001235      -0.20684232       2.51378145       0.84014252
I       26.34067229       7.44170368       5.81776780       0.00000989       0.00000234       0.00000533       2.65397966       1.23103108       1.78015834
I       23.20118231       5.70235720       3.42698071      -0.00001413      -0.00002260      -0.00000374       0.00730227       1.53156269       0.92804070
I       33.48230579       9.81267513       5.76883104       0.00000743       0.00004945       0.00000208       1.43718702       3.25043010       0.93185365
I       24.53228322      10.94153574       3.41498589      -0.00000994       0.00001745      -0.00001020      -1.95170836      -0.23466089      -0.96981006
I       32.15117562       4.57351318       5.78079250       0.00004017      -0.00001440       0.00000928      -0.80286435      -1.46910199       1.52692389