320
Lattice="31.392636507215773 -0.04481615214523286 0.09492011689125937 0.1392903615087138 28.887165468702893 0.25788863917263216 -0.2799812260619887 -0.14238296324623026 16.953981605175922" Properties=species:S:1:pos:R:3:forces:R:3:momenta:R:3 energy=-987.0805453400044 stress="0.0004939690198258621 9.525390737255897e-05 -8.710523812445471e-05 9.525390737255897e-05 0.0017739109983095777 6.485724398513362e-05 -8.710523812445471e-05 6.485724398513362e-05 0.0008622093752122141" free_energy=-987.0805453400044 pbc="T T T"
Cs       1.38269261       3.65165699       3.50197509       0.00000890       0.00001586      -0.00000758      -0.54764893       0.04500340       3.32196540
Cs       5.44981171       6.23577846       7.84751499      -0.00000508      -0.00002021      -0.00000902       0.13424663      -0.87670911       1.35271047
Cs       1.41367465      10.78007899      16.35056897      -0.00000385      -0.00002310       0.00000438       0.47728522      -0.68527701      -1.42964106
Cs       5.34872289      13.47973295       3.60481268       0.00000232       0.00003545      -0.00001444       0.93420727       1.05353823       0.53175569
Cs       9.23113555       3.64062120       3.52563796      -0.00001824       0.00001635      -0.00000511       2.03154059       0.65756123      -0.19733533
Cs      13.29791134       6.22445386       7.87120208       0.00002223       0.00001900       0.00001414      -0.56200285       0.29539441      -0.44753497
Cs       9.26171525      10.76892435      16.37418981      -0.00002466      -0.00002110       0.00002144      -2.38754828       0.98591331       0.35206258
Cs      13.19679793      13.46865464       3.62856391      -0.00000090      -0.00000527       0.00000733       0.96584198      -0.96896626      -0.98986076
Pb       2.81155918      15.76481062       7.87249057      -0.00001604      -0.00001890       0.00001852      -3.64193586       0.02010833      -4.03184221
Pb       6.73422348      15.75645372       7.89304237       0.00000507       0.00002032       0.00002797      -0.02384557       1.88456636       1.35040859
Pb       4.09074432       8.56615915       3.60586683      -0.00003596       0.00003342      -0.00000612      -0.26191130       1.84322190       0.10863186
Pb       0.16807148       8.57469446       3.58533241      -0.00001075      -0.00003452      -0.00002294       0.36359166      -1.81333687       0.30784514
Pb      10.65968549      15.75366399       7.89616416       0.00004904      -0.00000100       0.00003584       0.91451064      -0.92837398      -0.44151111
Pb      14.58239723      15.74509518       7.91685626      -0.00003448       0.00002444       0.00001333       0.10157161       0.92702530      -3.13613325
Pb      11.93889605       8.55512914       3.62964417       0.00005655      -0.00003543      -0.00002435      -0.54994298       0.06636122       2.80723638
Pb       8.01621280       8.56348369       3.60899683      -0.00000135      -0.00000610      -0.00002751       0.94537604       2.83657015      -0.18562808
I        4.78691324       2.61405254       1.53735804      -0.00002130      -0.00003211      -0.00001995      -1.42156859      -2.20948401       1.04725759
I        2.18566857       7.34464099       1.33503575       0.00000831       0.00000917       0.00003993      -0.13208780      -1.39450775      -0.90475268
I        4.67200457       2.73247088       5.61292784      -0.00001551      -0.00000281       0.00000323      -0.78903747       0.27919142       1.35899818
I        2.16063115       7.15493051       5.73646081      -0.00004048       0.00000202      -0.00000803      -0.40005756      -1.05652129       0.28100386
I        6.11307619       6.00620295       3.50427971       0.00001206       0.00002174      -0.00000380       1.15084444       1.55667845      -1.74737560
I        0.71959426       3.88118014       7.84510860       0.00000476       0.00001363       0.00001113      -0.31976186      -0.13727197      -1.02942350
I        6.10056388       9.79693299       5.85759105       0.00002211      -0.00000342       0.00000632      -1.44490360      -1.84488979       0.88759250
I        0.80166157      14.53399023       5.62082840       0.00001639      -0.00000042      -0.00001939      -2.39534007      -1.90523542      -2.11880644
I        6.10305998       9.96867180       1.45082330       0.00001408       0.00000568      -0.00000755      -0.62422555      -2.74006480       0.62818902
I        0.93920357      14.43356307       1.55061234       0.00002518      -0.00000787      -0.00002942      -2.25285351      -2.42877471       0.28395781
I        4.70474938      13.20038205       7.75998106       0.00000229      -0.00001299      -0.00000785       0.10177905       0.08746323       0.97616190
I        2.19765303      11.13066112       3.71843831       0.00001985       0.00000963      -0.00000159      -0.35071758       1.49831265       2.19228849
I       12.63507130       2.60281196       1.56111194      -0.00002025      -0.00000776      -0.00002976       1.85260032      -0.07870170       1.06239827
I       10.03391654       7.33359620       1.35872465       0.00000186      -0.00000203       0.00005137      -0.76685771       0.35389896      -0.79713506
I       12.52031711       2.72126753       5.63668617      -0.00000722      -0.00001625       0.00000416       0.96329134      -1.27605446      -2.03513830
I       10.00872915       7.14380683       5.76016957       0.00000020       0.00001656      -0.00001764       2.04918963      -1.15070074       1.76765675
I       13.96113486       5.99508959       3.52797115      -0.00002037      -0.00001429       0.00000323      -1.15010608      -0.14937265      -0.70785457
I        8.56778730       3.87011850       7.86887414       0.00001473      -0.00005083       0.00000582      -0.82189563       1.01655924      -0.20952428
I       13.94876937       9.78566220       5.88145340       0.00000687       0.00001370      -0.00001300      -2.01735941       0.96790748      -0.66681565
I        8.64986477      14.52307899       5.64437511      -0.00002460      -0.00000883       0.00001299       0.11684363       1.67961968       0.71770233
I       13.95130748       9.95760399       1.47467538      -0.00001626      -0.00000308       0.00000615       1.56322694       0.25409331      -1.21470646
I        8.78733983      14.42236214       1.57417871       0.00001374       0.00000250       0.00000197      -3.91376882      -0.69677182      -0.13322253
I       12.55273959      13.18914679       7.78370782       0.00002852       0.00001404      -0.00001549       0.14084143      -2.64861516       1.03307829
I       10.04572299      11.11954128       3.74218939      -0.00001775       0.00005474       0.00000121       0.83997246      -1.22421350       0.58015928
Cs       1.24270200       3.58046551      11.97896589       0.00000890       0.00001586      -0.00000757      -0.54764893       0.04500340       3.32196540
Cs       5.30982110       6.16458698      16.32450579      -0.00000508      -0.00002022      -0.00000901       0.13424663      -0.87670911       1.35271047
Cs       1.55366527      10.85127047       7.87357816      -0.00000385      -0.00002310       0.00000438       0.47728522      -0.68527701      -1.42964106
Cs       5.20873228      13.40854147      12.08180348       0.00000232       0.00003545      -0.00001444       0.93420727       1.05353823       0.53175569
Cs       9.09114494       3.56942972      12.00262876      -0.00001824       0.00001635      -0.00000510       2.03154059       0.65756123      -0.19733533
Cs      13.15792073       6.15326238      16.34819288       0.00002223       0.00001900       0.00001414      -0.56200285       0.29539441      -0.44753497
Cs       9.40170587      10.84011583       7.89719900      -0.00002467      -0.00002110       0.00002145      -2.38754828       0.98591331       0.35206258
Cs      13.05680732      13.39746316      12.10555471      -0.00000090      -0.00000527       0.00000733       0.96584198      -0.96896626      -0.98986076
Pb       2.67156857      15.69361914      16.34948137      -0.00001604      -0.00001891       0.00001853      -3.64193586       0.02010833      -4.03184221
Pb       6.59423287      15.68526224      16.37003317       0.00000507       0.00002032       0.00002798      -0.02384557       1.88456636       1.35040859
Pb       3.95075371       8.49496767      12.08285763      -0.00003597       0.00003342      -0.00000612      -0.26191130       1.84322190       0.10863186
Pb       0.02808087       8.50350298      12.06232321      -0.00001075      -0.00003452      -0.00002294       0.36359166      -1.81333687       0.30784514
Pb      10.51969488      15.68247251      16.37315496       0.00004904      -0.00000101       0.00003585       0.91451064      -0.92837398      -0.44151111
Pb      14.44240662      15.67390370      16.39384706      -0.00003448       0.00002444       0.00001334       0.10157161       0.92702530      -3.13613325
Pb      11.79890544       8.48393766      12.10663497       0.00005654      -0.00003543      -0.00002435      -0.54994298       0.06636122       2.80723638
Pb       7.87622219       8.49229221      12.08598763      -0.00000134      -0.00000610      -0.00002751       0.94537604       2.83657015      -0.18562808
I        4.64692263       2.54286106      10.01434884      -0.00002131      -0.00003209      -0.00001993      -1.42156859      -2.20948401       1.04725759
I        2.04567796       7.27344951       9.81202655       0.00000831       0.00000917       0.00003993      -0.13208780      -1.39450775      -0.90475268
I        4.53201396       2.66127940      14.08991864      -0.00001552      -0.00000282       0.00000324      -0.78903747       0.27919142       1.35899818
I        2.02064054       7.08373903      14.21345161      -0.00004048       0.00000202      -0.00000803      -0.40005756      -1.05652129       0.28100386
I        5.97308558       5.93501147      11.98127051       0.00001206       0.00002174      -0.00000380       1.15084444       1.55667845      -1.74737560
I        0.57960365       3.80998866      16.32209940       0.00000477       0.00001362       0.00001112      -0.31976186      -0.13727197      -1.02942350
I        5.96057327       9.72574151      14.33458185       0.00002211      -0.00000342       0.00000632      -1.44490360      -1.84488979       0.88759250
I        0.66167096      14.46279875      14.09781920       0.00001639      -0.00000041      -0.00001939      -2.39534007      -1.90523542      -2.11880644
I        5.96306937       9.89748032       9.92781410       0.00001408       0.00000568      -0.00000754      -0.62422555      -2.74006480       0.62818902
I        0.79921296      14.36237159      10.02760314       0.00002517      -0.00000787      -0.00002941      -2.25285351      -2.42877471       0.28395781
I        4.56475877      13.12919057      16.23697186       0.00000229      -0.00001299      -0.00000785       0.10177905       0.08746323       0.97616190
I        2.05766242      11.05946964      12.19542911       0.00001985       0.00000963      -0.00000159      -0.35071758       1.49831265       2.19228849
I       12.49508069       2.53162048      10.03810274      -0.00002025      -0.00000775      -0.00002974       1.85260032      -0.07870170       1.06239827
I        9.89392593       7.26240472       9.83571545       0.00000186      -0.00000203       0.00005137      -0.76685771       0.35389896      -0.79713506
I       12.38032650       2.65007605      14.11367697      -0.00000723      -0.00001626       0.00000417       0.96329134      -1.27605446      -2.03513830
I        9.86873854       7.07261535      14.23716037       0.00000020       0.00001656      -0.00001764       2.04918963      -1.15070074       1.76765675
I       13.82114425       5.92389811      12.00496195      -0.00002036      -0.00001430       0.00000323      -1.15010608      -0.14937265      -0.70785457
I        8.42779669       3.79892702      16.34586494       0.00001472      -0.00005086       0.00000581      -0.82189563       1.01655924      -0.20952428
I       13.80877876       9.71447072      14.35844420       0.00000687       0.00001370      -0.00001300      -2.01735941       0.96790748      -0.66681565
I        8.50987416      14.45188751      14.12136591      -0.00002460      -0.00000883       0.00001300       0.11684363       1.67961968       0.71770233
I       13.81131687       9.88641251       9.95166618      -0.00001626      -0.00000308       0.00000615       1.56322694       0.25409331      -1.21470646
I        8.64734922      14.35117066      10.05116951       0.00001373       0.00000249       0.00000199      -3.91376882      -0.69677182      -0.13322253
I       12.41274898      13.11795531      16.26069862       0.00002851       0.00001404      -0.00001549       0.14084143      -2.64861516       1.03307829
I        9.90573238      11.04834980      12.21918019      -0.00001775       0.00005474       0.00000121       0.83997246      -1.22421350       0.58015928
Cs       1.45233779      18.09523972       3.63091941       0.00000889       0.00001587      -0.00000758      -0.54764893       0.04500340       3.32196540
Cs       5.51945689      20.67936119       7.97645931      -0.00000508      -0.00002021      -0.00000902       0.13424663      -0.87670911       1.35271047
Cs       1.48331983      25.22366172      16.47951328      -0.00000385      -0.00002309       0.00000439       0.47728522      -0.68527701      -1.42964106
Cs       5.41836807      27.92331568       3.73375700       0.00000232       0.00003545      -0.00001444       0.93420727       1.05353823       0.53175569
Cs       9.30078073      18.08420393       3.65458228      -0.00001824       0.00001635      -0.00000511       2.03154059       0.65756123      -0.19733533
Cs      13.36755652      20.66803659       8.00014640       0.00002223       0.00001900       0.00001414      -0.56200285       0.29539441      -0.44753497
Cs       9.33136043      25.21250708      16.50313412      -0.00002466      -0.00002110       0.00002145      -2.38754828       0.98591331       0.35206258
Cs      13.26644311      27.91223737       3.75750823      -0.00000090      -0.00000526       0.00000733       0.96584198      -0.96896626      -0.98986076
Pb       2.74191400       1.32122789       7.74354625      -0.00001603      -0.00001892       0.00001852      -3.64193586       0.02010833      -4.03184221
Pb       6.66457830       1.31287099       7.76409805       0.00000506       0.00002031       0.00002797      -0.02384557       1.88456636       1.35040859
Pb       4.16038950      23.00974188       3.73481115      -0.00003597       0.00003342      -0.00000612      -0.26191130       1.84322190       0.10863186
Pb       0.23771666      23.01827719       3.71427673      -0.00001075      -0.00003450      -0.00002294       0.36359166      -1.81333687       0.30784514
Pb      10.59004031       1.31008126       7.76721984       0.00004905      -0.00000102       0.00003584       0.91451064      -0.92837398      -0.44151111
Pb      14.51275205       1.30151245       7.78791194      -0.00003449       0.00002442       0.00001333       0.10157161       0.92702530      -3.13613325
Pb      12.00854123      22.99871187       3.75858849       0.00005655      -0.00003544      -0.00002435      -0.54994298       0.06636122       2.80723638
Pb       8.08585798      23.00706642       3.73794115      -0.00000135      -0.00000610      -0.00002751       0.94537604       2.83657015      -0.18562808
I        4.85655842      17.05763527       1.66630236      -0.00002130      -0.00003209      -0.00001994      -1.42156859      -2.20948401       1.04725759
I        2.25531375      21.78822372       1.46398007       0.00000831       0.00000917       0.00003993      -0.13208780      -1.39450775      -0.90475268
I        4.74164975      17.17605361       5.74187216      -0.00001551      -0.00000280       0.00000323      -0.78903747       0.27919142       1.35899818
I        2.23027633      21.59851324       5.86540513      -0.00004049       0.00000202      -0.00000803      -0.40005756      -1.05652129       0.28100386
I        6.18272137      20.44978568       3.63322403       0.00001206       0.00002174      -0.00000381       1.15084444       1.55667845      -1.74737560
I        0.78923944      18.32476287       7.97405292       0.00000476       0.00001363       0.00001113      -0.31976186      -0.13727197      -1.02942350
I        6.17020906      24.24051572       5.98653537       0.00002211      -0.00000342       0.00000632      -1.44490360      -1.84488979       0.88759250
I        0.73201639       0.09040750       5.49188408       0.00001639      -0.00000042      -0.00001939      -2.39534007      -1.90523542      -2.11880644
I        6.17270516      24.41225453       1.57976762       0.00001408       0.00000569      -0.00000755      -0.62422555      -2.74006480       0.62818902
I        0.86955839      -0.01001966       1.42166802       0.00002518      -0.00000787      -0.00002942      -2.25285351      -2.42877471       0.28395781
I        4.77439456      27.64396478       7.88892538       0.00000229      -0.00001296      -0.00000785       0.10177905       0.08746323       0.97616190
I        2.26729821      25.57424385       3.84738263       0.00001985       0.00000964      -0.00000159      -0.35071758       1.49831265       2.19228849
I       12.70471648      17.04639469       1.69005626      -0.00002024      -0.00000775      -0.00002975       1.85260032      -0.07870170       1.06239827
I       10.10356172      21.77717893       1.48766897       0.00000186      -0.00000203       0.00005137      -0.76685771       0.35389896      -0.79713506
I       12.58996229      17.16485026       5.76563049      -0.00000722      -0.00001624       0.00000416       0.96329134      -1.27605446      -2.03513830
I       10.07837433      21.58738956       5.88911389       0.00000020       0.00001656      -0.00001764       2.04918963      -1.15070074       1.76765675
I       14.03078004      20.43867232       3.65691547      -0.00002036      -0.00001428       0.00000323      -1.15010608      -0.14937265      -0.70785457
I        8.63743248      18.31370123       7.99781846       0.00001473      -0.00005082       0.00000582      -0.82189563       1.01655924      -0.20952428
I       14.01841455      24.22924493       6.01039772       0.00000687       0.00001370      -0.00001300      -2.01735941       0.96790748      -0.66681565
I        8.58021959       0.07949626       5.51543079      -0.00002460      -0.00000883       0.00001299       0.11684363       1.67961968       0.71770233
I       14.02095266      24.40118672       1.60361970      -0.00001626      -0.00000307       0.00000615       1.56322694       0.25409331      -1.21470646
I        8.71769465      -0.02122059       1.44523439       0.00001374       0.00000249       0.00000198      -3.91376882      -0.69677182      -0.13322253
I       12.62238477      27.63272952       7.91265214       0.00002851       0.00001406      -0.00001549       0.14084143      -2.64861516       1.03307829
I       10.11536817      25.56312401       3.87113371      -0.00001775       0.00005474       0.00000121       0.83997246      -1.22421350       0.58015928
Cs       1.31234718      18.02404824      12.10791021       0.00000889       0.00001587      -0.00000757      -0.54764893       0.04500340       3.32196540
Cs       5.37946628      20.60816971      16.45345011      -0.00000508      -0.00002021      -0.00000901       0.13424663      -0.87670911       1.35271047
Cs       1.62331045      25.29485320       8.00252248      -0.00000385      -0.00002309       0.00000438       0.47728522      -0.68527701      -1.42964106
Cs       5.27837746      27.85212420      12.21074780       0.00000232       0.00003545      -0.00001445       0.93420727       1.05353823       0.53175569
Cs       9.16079012      18.01301245      12.13157308      -0.00001824       0.00001635      -0.00000511       2.03154059       0.65756123      -0.19733533
Cs      13.22756591      20.59684511      16.47713720       0.00002223       0.00001900       0.00001414      -0.56200285       0.29539441      -0.44753497
Cs       9.47135105      25.28369856       8.02614332      -0.00002467      -0.00002110       0.00002145      -2.38754828       0.98591331       0.35206258
Cs      13.12645250      27.84104589      12.23449903      -0.00000090      -0.00000526       0.00000733       0.96584198      -0.96896626      -0.98986076
Pb       2.60192339       1.25003640      16.22053705      -0.00001604      -0.00001888       0.00001853      -3.64193586       0.02010833      -4.03184221
Pb       6.52458769       1.24167950      16.24108885       0.00000506       0.00002035       0.00002797      -0.02384557       1.88456636       1.35040859
Pb       4.02039889      22.93855040      12.21180195      -0.00003597       0.00003342      -0.00000612      -0.26191130       1.84322190       0.10863186
Pb       0.09772605      22.94708571      12.19126753      -0.00001075      -0.00003450      -0.00002295       0.36359166      -1.81333687       0.30784514
Pb      10.45004970       1.23888977      16.24421064       0.00004904      -0.00000098       0.00003584       0.91451064      -0.92837398      -0.44151111
Pb      14.37276144       1.23032096      16.26490274      -0.00003449       0.00002445       0.00001334       0.10157161       0.92702530      -3.13613325
Pb      11.86855062      22.92752039      12.23557929       0.00005655      -0.00003543      -0.00002435      -0.54994298       0.06636122       2.80723638
Pb       7.94586737      22.93587494      12.21493195      -0.00000135      -0.00000610      -0.00002751       0.94537604       2.83657015      -0.18562808
I        4.71656781      16.98644379      10.14329316      -0.00002131      -0.00003209      -0.00001993      -1.42156859      -2.20948401       1.04725759
I        2.11532314      21.71703224       9.94097087       0.00000831       0.00000917       0.00003993      -0.13208780      -1.39450775      -0.90475268
I        4.60165914      17.10486213      14.21886296      -0.00001552      -0.00000280       0.00000323      -0.78903747       0.27919142       1.35899818
I        2.09028572      21.52732176      14.34239593      -0.00004049       0.00000202      -0.00000803      -0.40005756      -1.05652129       0.28100386
I        6.04273076      20.37859420      12.11021483       0.00001206       0.00002174      -0.00000380       1.15084444       1.55667845      -1.74737560
I        0.64924883      18.25357139      16.45104372       0.00000476       0.00001363       0.00001113      -0.31976186      -0.13727197      -1.02942350
I        6.03021845      24.16932424      14.46352617       0.00002211      -0.00000342       0.00000633      -1.44490360      -1.84488979       0.88759250
I        0.59202578       0.01921601      13.96887488       0.00001639      -0.00000041      -0.00001938      -2.39534007      -1.90523542      -2.11880644
I        6.03271455      24.34106305      10.05675842       0.00001408       0.00000568      -0.00000754      -0.62422555      -2.74006480       0.62818902
I        0.72956778      -0.08121115       9.89865882       0.00002517      -0.00000786      -0.00002942      -2.25285351      -2.42877471       0.28395781
I        4.63440395      27.57277330      16.36591618       0.00000229      -0.00001299      -0.00000785       0.10177905       0.08746323       0.97616190
I        2.12730760      25.50305237      12.32437343       0.00001985       0.00000963      -0.00000159      -0.35071758       1.49831265       2.19228849
I       12.56472587      16.97520321      10.16704706      -0.00002025      -0.00000775      -0.00002974       1.85260032      -0.07870170       1.06239827
I        9.96357111      21.70598745       9.96465977       0.00000186      -0.00000203       0.00005137      -0.76685771       0.35389896      -0.79713506
I       12.44997168      17.09365878      14.24262129      -0.00000723      -0.00001625       0.00000416       0.96329134      -1.27605446      -2.03513830
I        9.93838372      21.51619808      14.36610469       0.00000020       0.00001656      -0.00001763       2.04918963      -1.15070074       1.76765675
I       13.89078943      20.36748084      12.13390627      -0.00002036      -0.00001428       0.00000323      -1.15010608      -0.14937265      -0.70785457
I        8.49744187      18.24250975      16.47480926       0.00001473      -0.00005083       0.00000582      -0.82189563       1.01655924      -0.20952428
I       13.87842394      24.15805345      14.48738852       0.00000687       0.00001370      -0.00001299      -2.01735941       0.96790748      -0.66681565
I        8.44022898       0.00830477      13.99242159      -0.00002460      -0.00000882       0.00001300       0.11684363       1.67961968       0.71770233
I       13.88096205      24.32999524      10.08061050      -0.00001626      -0.00000307       0.00000615       1.56322694       0.25409331      -1.21470646
I        8.57770404      -0.09241208       9.92222519       0.00001373       0.00000251       0.00000198      -3.91376882      -0.69677182      -0.13322253
I       12.48239416      27.56153804      16.38964294       0.00002851       0.00001404      -0.00001549       0.14084143      -2.64861516       1.03307829
I        9.97537756      25.49193253      12.34812451      -0.00001775       0.00005474       0.00000121       0.83997246      -1.22421350       0.58015928
Cs      17.07901086       3.62924891       3.54943515       0.00000890       0.00001587      -0.00000758      -0.54764893       0.04500340       3.32196540
Cs      21.14612996       6.21337038       7.89497505      -0.00000508      -0.00002021      -0.00000902       0.13424663      -0.87670911       1.35271047
Cs      17.10999291      10.75767091      16.39802902      -0.00000385      -0.00002310       0.00000439       0.47728522      -0.68527701      -1.42964106
Cs      21.04504114      13.45732487       3.65227274       0.00000232       0.00003545      -0.00001444       0.93420727       1.05353823       0.53175569
Cs      24.92745380       3.61821312       3.57309802      -0.00001824       0.00001635      -0.00000511       2.03154059       0.65756123      -0.19733533
Cs      28.99422959       6.20204578       7.91866214       0.00002223       0.00001900       0.00001414      -0.56200285       0.29539441      -0.44753497
Cs      24.95803351      10.74651627      16.42164986      -0.00002467      -0.00002110       0.00002145      -2.38754828       0.98591331       0.35206258
Cs      28.89311618      13.44624656       3.67602397      -0.00000090      -0.00000526       0.00000733       0.96584198      -0.96896626      -0.98986076
Pb      18.50787743      15.74240254       7.91995063      -0.00001603      -0.00001889       0.00001852      -3.64193586       0.02010833      -4.03184221
Pb      22.43054173      15.73404564       7.94050243       0.00000507       0.00002035       0.00002796      -0.02384557       1.88456636       1.35040859
Pb      19.78706257       8.54375107       3.65332689      -0.00003597       0.00003342      -0.00000612      -0.26191130       1.84322190       0.10863186
Pb      15.86438973       8.55228638       3.63279247      -0.00001074      -0.00003450      -0.00002295       0.36359166      -1.81333687       0.30784514
Pb      26.35600374      15.73125591       7.94362422       0.00004904      -0.00000098       0.00003583       0.91451064      -0.92837398      -0.44151111
Pb      30.27871548      15.72268710       7.96431632      -0.00003448       0.00002445       0.00001333       0.10157161       0.92702530      -3.13613325
Pb      27.63521430       8.53272106       3.67710423       0.00005655      -0.00003544      -0.00002435      -0.54994298       0.06636122       2.80723638
Pb      23.71253105       8.54107561       3.65645689      -0.00000135      -0.00000610      -0.00002751       0.94537604       2.83657015      -0.18562808
I       20.48323149       2.59164446       1.58481810      -0.00002130      -0.00003209      -0.00001994      -1.42156859      -2.20948401       1.04725759
I       17.88198682       7.32223291       1.38249581       0.00000831       0.00000917       0.00003992      -0.13208780      -1.39450775      -0.90475268
I       20.36832282       2.71006280       5.66038790      -0.00001551      -0.00000280       0.00000323      -0.78903747       0.27919142       1.35899818
I       17.85694940       7.13252243       5.78392087      -0.00004048       0.00000201      -0.00000803      -0.40005756      -1.05652129       0.28100386
I       21.80939444       5.98379487       3.55173977       0.00001206       0.00002174      -0.00000380       1.15084444       1.55667845      -1.74737560
I       16.41591251       3.85877206       7.89256866       0.00000477       0.00001365       0.00001113      -0.31976186      -0.13727197      -1.02942350
I       21.79688213       9.77452491       5.90505111       0.00002211      -0.00000342       0.00000632      -1.44490360      -1.84488979       0.88759250
I       16.49797982      14.51158215       5.66828846       0.00001640      -0.00000041      -0.00001939      -2.39534007      -1.90523542      -2.11880644
I       21.79937823       9.94626372       1.49828336       0.00001408       0.00000569      -0.00000755      -0.62422555      -2.74006480       0.62818902
I       16.63552182      14.41115499       1.59807240       0.00002518      -0.00000786      -0.00002943      -2.25285351      -2.42877471       0.28395781
I       20.40106763      13.17797397       7.80744112       0.00000229      -0.00001298      -0.00000785       0.10177905       0.08746323       0.97616190
I       17.89397128      11.10825304       3.76589837       0.00001986       0.00000963      -0.00000159      -0.35071758       1.49831265       2.19228849