320
Lattice="25.121854697261806 -0.05977452525107978 -0.12957468506993428 0.07192418218408468 24.82535238426277 -0.21579304325525844 0.12447059888337542 -0.778188195725328 24.81728374174729" Properties=species:S:1:pos:R:3:forces:R:3:momenta:R:3 energy=-986.3891733792078 stress="0.0016700538547866524 1.8602841831399616e-05 -3.694243812041539e-06 1.8602841831399616e-05 0.0014023836688254764 0.0002604979991624308 -3.694243812041539e-06 0.0002604979991624308 0.0014296584427014032" free_energy=-986.3891733792078 pbc="T T T"
Cs       9.53565315      15.02229041       5.84414665      -0.00001385      -0.00001873      -0.00000837       0.42395760       0.80589081       0.11693919
Cs       3.23509917       9.80709074       4.97599268      -0.00000197      -0.00002003       0.00000097       0.24996339       0.71064917       1.71450289
Cs       3.26920527       9.90696313      11.48163672       0.00001513       0.00002414       0.00000239      -1.36360059      -2.34172005      -2.12741414
Cs       9.56973715      15.12229720      12.34982658       0.00000255       0.00001378      -0.00001859      -1.45923995       0.21891598      -0.72407592
Cs       9.54878201       8.62147053      12.10240244      -0.00000723      -0.00001633      -0.00000634       0.41941165       1.28774598      -1.35540910
Cs       3.28426386      15.81881452      11.12628292      -0.00002700      -0.00000023      -0.00000420      -1.69068894      -2.24988416       0.75797710
Cs       3.25606741      16.30804586       5.22329233       0.00001070      -0.00000789       0.00001287       0.42083716       0.67652221       0.25551240
Cs       9.52070410       9.11055213       6.19935322      -0.00000772       0.00000686       0.00000087      -3.05912258      -0.13348740      -0.01278355
Pb       0.10398762       6.27326844       8.74918960      -0.00000302      -0.00002453      -0.00001452      -0.57639527       0.27062093       0.55835838
Pb       6.40243343      12.46467444       8.66287580      -0.00000696       0.00002410      -0.00001202       1.66917329      -0.93969978      -1.98426958
Pb       0.12196640      12.47961985       8.69528527       0.00002025       0.00001539       0.00001094       0.70191821       0.54740391      -3.16055867
Pb       6.38445741       6.25834696       8.71675720       0.00001674      -0.00003398       0.00000992      -0.71379828      -1.29076548      -0.73415457
Pb       0.07285799       6.46782638       2.54484793       0.00000590       0.00000393       0.00000520      -0.39041079      -0.23372187       4.14400785
Pb       6.37128797      12.65924148       2.45856059       0.00001860      -0.00000823       0.00000421       2.39524451       0.76308876      -3.07770142
Pb       0.09085378      12.67419486       2.49094614      -0.00001844       0.00000262      -0.00001073       0.75429560      -0.71330209      -2.68650742
Pb       6.35333148       6.45286782       2.51245953      -0.00000642       0.00003133      -0.00001303       1.89699853       2.24365440      -1.04726295
I       24.75101400       9.31858881       9.30834276      -0.00001258       0.00003873       0.00000937       0.28482510       0.08195278      -1.83844376
I        5.92053794      15.56865415       7.92572633       0.00001753       0.00000848       0.00002162      -0.03959483       0.48507611       1.35969264
I       13.17576191      15.55095925       7.88779106      -0.00000809      -0.00001859      -0.00000072       0.12403282       1.10511526      -0.27602789
I        6.88431236       9.36069874       9.39993989      -0.00000101      -0.00000397      -0.00000325      -2.36881919       0.21149271       1.22623993
I        9.54629731      12.94099199       9.11939789      -0.00001843      -0.00000822       0.00001395       0.45276279      -2.54551967      -0.73766320
I        3.28387527      19.14034565       9.11894462       0.00001395       0.00000075       0.00000016       1.82975985       0.19910482       1.11458441
I        3.25857429      11.98832553       8.20643773       0.00002729       0.00001566      -0.00001678       0.44494637       0.75014897      -1.26328952
I        9.52101056       5.78901058       8.20664575      -0.00002674       0.00000803       0.00001306       0.34562995       0.15149767      -0.75185124
I       12.17689664      15.74939930       3.11488920       0.00001281      -0.00000579      -0.00000877       2.02621931       0.29196817       0.73720718
I        5.87145869       9.55686731       1.77545081      -0.00000105       0.00005040      -0.00001602       2.89509431      -0.88483149       0.52335572
I        0.62786924       9.17998372      14.21087258       0.00002660       0.00000432      -0.00000809      -0.89772841      -2.38117801      -0.70344740
I        6.93338338      15.37251061      15.55036150       0.00000464      -0.00004864      -0.00000910       0.97933964       1.79985247      -0.92835945
I        3.29697852      12.73952332      15.37731252       0.00006893      -0.00000912      -0.00002241      -1.26093599      -0.96490689      -0.23099080
I        9.55941600       6.54011524      15.37762978       0.00001308      -0.00001636       0.00000714       0.85665311       0.88069403       1.07167452
I        9.50785642      12.18987868       1.94853990      -0.00005085       0.00001370       0.00001580       0.67109801       0.58110236      -3.93945599
I        3.24543155      18.38929177       1.94797653      -0.00000536       0.00000455       0.00000836       0.27049113      -1.11147269       0.57678582
I       24.78815673      17.81735861      11.59967330       0.00000952       0.00001690       0.00002809      -0.57448275       1.37383778       1.77016846
I        5.93359923      13.08072725      11.78422457      -0.00000806      -0.00003280       0.00003501      -3.24047322      -1.65205323       0.55965193
I       13.13857611       7.05216649       5.59641621      -0.00002475       0.00001618      -0.00001933      -0.08098063       0.00500584      -0.03332368
I        6.87131017      11.84865644       5.54153963      -0.00000816       0.00000115      -0.00002861      -1.59151254       1.95408323       0.17304255
I       24.73917280      11.80560659       5.44935131      -0.00002782      -0.00000171       0.00000676       2.75783634      -2.05831420       1.56309351
I        5.92041728      19.48164086       5.52590364       0.00000574      -0.00001482      -0.00000097       1.28493500       1.90721219       1.51549779
I       13.18763127      13.06401551      11.74683575       0.00000120      -0.00001590      -0.00000037       3.40575886       0.43841299      -0.49174420
I        6.88448294       5.44778811      11.79974062      -0.00000561       0.00000492       0.00001552      -1.37249154       0.24900746      -0.20413531
Cs       9.59788845      14.63319631      18.25278852      -0.00001385      -0.00001873      -0.00000836       0.42395760       0.80589081       0.11693919
Cs       3.29733447       9.41799664      17.38463455      -0.00000197      -0.00002003       0.00000098       0.24996339       0.71064917       1.71450289
Cs       3.33144057       9.51786903      23.89027859       0.00001513       0.00002414       0.00000239      -1.36360059      -2.34172005      -2.12741414
Cs       9.50750185      15.51139130      -0.05881529       0.00000255       0.00001378      -0.00001859      -1.45923995       0.21891598      -0.72407592
Cs       9.61101731       8.23237643      24.51104431      -0.00000723      -0.00001633      -0.00000634       0.41941165       1.28774598      -1.35540910
Cs       3.34649916      15.42972042      23.53492479      -0.00002701      -0.00000023      -0.00000420      -1.69068894      -2.24988416       0.75797710
Cs       3.31830271      15.91895176      17.63193420       0.00001070      -0.00000789       0.00001287       0.42083716       0.67652221       0.25551240
Cs       9.58293940       8.72145803      18.60799509      -0.00000772       0.00000686       0.00000087      -3.05912258      -0.13348740      -0.01278355
Pb       0.16622292       5.88417434      21.15783147      -0.00000303      -0.00002452      -0.00001451      -0.57639527       0.27062093       0.55835838
Pb       6.46466873      12.07558034      21.07151767      -0.00000697       0.00002410      -0.00001202       1.66917329      -0.93969978      -1.98426958
Pb       0.18420170      12.09052575      21.10392714       0.00002025       0.00001540       0.00001096       0.70191821       0.54740391      -3.16055867
Pb       6.44669271       5.86925286      21.12539907       0.00001674      -0.00003398       0.00000992      -0.71379828      -1.29076548      -0.73415457
Pb       0.13509329       6.07873228      14.95348980       0.00000590       0.00000393       0.00000520      -0.39041079      -0.23372187       4.14400785
Pb       6.43352327      12.27014738      14.86720246       0.00001860      -0.00000823       0.00000421       2.39524451       0.76308876      -3.07770142
Pb       0.15308908      12.28510076      14.89958801      -0.00001845       0.00000261      -0.00001072       0.75429560      -0.71330209      -2.68650742
Pb       6.41556678       6.06377372      14.92110140      -0.00000642       0.00003133      -0.00001303       1.89699853       2.24365440      -1.04726295
I       24.81324930       8.92949472      21.71698464      -0.00001258       0.00003870       0.00000936       0.28482510       0.08195278      -1.83844376
I        5.98277324      15.17956005      20.33436820       0.00001753       0.00000848       0.00002162      -0.03959483       0.48507611       1.35969264
I       13.23799721      15.16186515      20.29643293      -0.00000809      -0.00001859      -0.00000072       0.12403282       1.10511526      -0.27602789
I        6.94654766       8.97160464      21.80858176      -0.00000101      -0.00000398      -0.00000325      -2.36881919       0.21149271       1.22623993
I        9.60853261      12.55189789      21.52803976      -0.00001843      -0.00000822       0.00001395       0.45276279      -2.54551967      -0.73766320
I        3.34611057      18.75125155      21.52758649       0.00001395       0.00000075       0.00000016       1.82975985       0.19910482       1.11458441
I        3.32080959      11.59923143      20.61507960       0.00002730       0.00001566      -0.00001678       0.44494637       0.75014897      -1.26328952
I        9.58324586       5.39991648      20.61528762      -0.00002674       0.00000803       0.00001306       0.34562995       0.15149767      -0.75185124
I       12.23913194      15.36030520      15.52353107       0.00001281      -0.00000579      -0.00000877       2.02621931       0.29196817       0.73720718
I        5.93369399       9.16777321      14.18409268      -0.00000105       0.00005040      -0.00001602       2.89509431      -0.88483149       0.52335572
I        0.56563394       9.56907782       1.80223071       0.00002660       0.00000432      -0.00000809      -0.89772841      -2.38117801      -0.70344740
I        6.87114808      15.76160471       3.14171963       0.00000464      -0.00004864      -0.00000910       0.97933964       1.79985247      -0.92835945
I        3.23474322      13.12861742       2.96867065       0.00006893      -0.00000912      -0.00002241      -1.26093599      -0.96490689      -0.23099080
I        9.49718070       6.92920934       2.96898791       0.00001308      -0.00001636       0.00000714       0.85665311       0.88069403       1.07167452
I        9.57009172      11.80078458      14.35718177      -0.00005086       0.00001370       0.00001580       0.67109801       0.58110236      -3.93945599
I        3.30766685      18.00019767      14.35661840      -0.00000537       0.00000455       0.00000836       0.27049113      -1.11147269       0.57678582
I       24.85039203      17.42826452      24.00831518       0.00000952       0.00001689       0.00002806      -0.57448275       1.37383778       1.77016846
I        5.99583453      12.69163315      24.19286644      -0.00000806      -0.00003280       0.00003502      -3.24047322      -1.65205323       0.55965193
I       13.20081141       6.66307239      18.00505808      -0.00002475       0.00001618      -0.00001932      -0.08098063       0.00500584      -0.03332368
I        6.93354547      11.45956234      17.95018150      -0.00000816       0.00000115      -0.00002861      -1.59151254       1.95408323       0.17304255
I       24.80140810      11.41651250      17.85799319      -0.00002782      -0.00000172       0.00000673       2.75783634      -2.05831420       1.56309351
I        5.98265258      19.09254676      17.93454551       0.00000574      -0.00001482      -0.00000097       1.28493500       1.90721219       1.51549779
I       13.24986657      12.67492141      24.15547762       0.00000120      -0.00001590      -0.00000037       3.40575886       0.43841299      -0.49174420
I        6.94671824       5.05869401      24.20838249      -0.00000561       0.00000493       0.00001553      -1.37249154       0.24900746      -0.20413531
Cs       9.49969106       2.60961422       5.95204317      -0.00001385      -0.00001873      -0.00000837       0.42395760       0.80589081       0.11693919
Cs       3.27106126      22.21976693       4.86809616      -0.00000197      -0.00002003       0.00000097       0.24996339       0.71064917       1.71450289
Cs       3.30516736      22.31963932      11.37374020       0.00001513       0.00002414       0.00000239      -1.36360059      -2.34172005      -2.12741414
Cs       9.53377506       2.70962101      12.45772310       0.00000255       0.00001378      -0.00001859      -1.45923995       0.21891598      -0.72407592
Cs       9.58474410      21.03414672      11.99450592      -0.00000723      -0.00001633      -0.00000634       0.41941165       1.28774598      -1.35540910
Cs       3.24830177       3.40613833      11.23417944      -0.00002701      -0.00000023      -0.00000420      -1.69068894      -2.24988416       0.75797710
Cs       3.22010532       3.89536967       5.33118885       0.00001069      -0.00000789       0.00001287       0.42083716       0.67652221       0.25551240
Cs       9.55666619      21.52322832       6.09145670      -0.00000772       0.00000686       0.00000087      -3.05912258      -0.13348740      -0.01278355
Pb       0.13994971      18.68594463       8.64129308      -0.00000302      -0.00002452      -0.00001452      -0.57639527       0.27062093       0.55835838
Pb       6.36647134       0.05199825       8.77077232      -0.00000697       0.00002409      -0.00001202       1.66917329      -0.93969978      -1.98426958
Pb       0.08600431       0.06694366       8.80318179       0.00002025       0.00001539       0.00001094       0.70191821       0.54740391      -3.16055867
Pb       6.42041950      18.67102315       8.60886068       0.00001674      -0.00003398       0.00000992      -0.71379828      -1.29076548      -0.73415457
Pb       0.10882008      18.88050257       2.43695141       0.00000591       0.00000393       0.00000521      -0.39041079      -0.23372187       4.14400785
Pb       6.33532588       0.24656529       2.56645711       0.00001860      -0.00000824       0.00000421       2.39524451       0.76308876      -3.07770142
Pb       0.05489169       0.26151867       2.59884266      -0.00001845       0.00000261      -0.00001072       0.75429560      -0.71330209      -2.68650742
Pb       6.38929357      18.86554401       2.40456301      -0.00000642       0.00003133      -0.00001303       1.89699853       2.24365440      -1.04726295
I       24.78697609      21.73126501       9.20044624      -0.00001258       0.00003871       0.00000937       0.28482510       0.08195278      -1.83844376
I        5.88457585       3.15597796       8.03362285       0.00001753       0.00000848       0.00002162      -0.03959483       0.48507611       1.35969264
I       13.13979982       3.13828306       7.99568758      -0.00000809      -0.00001859      -0.00000072       0.12403282       1.10511526      -0.27602789
I        6.92027445      21.77337493       9.29204337      -0.00000101      -0.00000397      -0.00000325      -2.36881919       0.21149271       1.22623993
I        9.51033522       0.52831580       9.22729441      -0.00001843      -0.00000822       0.00001395       0.45276279      -2.54551967      -0.73766320
I        3.24791318       6.72766946       9.22684114       0.00001395       0.00000075       0.00000016       1.82975985       0.19910482       1.11458441
I        3.29453638      24.40100172       8.09854121       0.00002730       0.00001566      -0.00001678       0.44494637       0.75014897      -1.26328952
I        9.55697265      18.20168677       8.09874923      -0.00002674       0.00000803       0.00001306       0.34562995       0.15149767      -0.75185124
I       12.14093455       3.33672311       3.22278572       0.00001281      -0.00000579      -0.00000877       2.02621931       0.29196817       0.73720718
I        5.90742078      21.96954350       1.66755429      -0.00000105       0.00005041      -0.00001602       2.89509431      -0.88483149       0.52335572
I        0.66383133      21.59265991      14.10297606       0.00002660       0.00000432      -0.00000809      -0.89772841      -2.38117801      -0.70344740
I        6.89742129       2.95983442      15.65825802       0.00000464      -0.00004865      -0.00000910       0.97933964       1.79985247      -0.92835945
I        3.26101643       0.32684713      15.48520904       0.00006893      -0.00000912      -0.00002240      -1.26093599      -0.96490689      -0.23099080
I        9.59537809      18.95279143      15.26973326       0.00001308      -0.00001636       0.00000714       0.85665311       0.88069403       1.07167452
I        9.54381851      24.60255487       1.84064338      -0.00005085       0.00001370       0.00001580       0.67109801       0.58110236      -3.93945599
I        3.20946946       5.97661558       2.05587305      -0.00000536       0.00000455       0.00000836       0.27049113      -1.11147269       0.57678582
I       24.75219464       5.40468242      11.70756983       0.00000952       0.00001690       0.00002806      -0.57448275       1.37383778       1.77016846
I        5.89763714       0.66805106      11.89212109      -0.00000806      -0.00003280       0.00003502      -3.24047322      -1.65205323       0.55965193
I       13.17453820      19.46484268       5.48851969      -0.00002475       0.00001618      -0.00001933      -0.08098063       0.00500584      -0.03332368
I        6.90727226      24.26133263       5.43364311      -0.00000816       0.00000115      -0.00002862      -1.59151254       1.95408323       0.17304255
I       24.77513489      24.21828279       5.34145479      -0.00002782      -0.00000172       0.00000676       2.75783634      -2.05831420       1.56309351
I        5.88445519       7.06896467       5.63380016       0.00000574      -0.00001482      -0.00000097       1.28493500       1.90721219       1.51549779
I       13.15166918       0.65133932      11.85473227       0.00000120      -0.00001590      -0.00000036       3.40575886       0.43841299      -0.49174420
I        6.92044503      17.86046430      11.69184410      -0.00000561       0.00000492       0.00001552      -1.37249154       0.24900746      -0.20413531
Cs       9.56192636       2.22052012      18.36068504      -0.00001385      -0.00001873      -0.00000836       0.42395760       0.80589081       0.11693919
Cs       3.33329656      21.83067283      17.27673803      -0.00000197      -0.00002003       0.00000097       0.24996339       0.71064917       1.71450289
Cs       3.36740266      21.93054522      23.78238207       0.00001513       0.00002414       0.00000239      -1.36360059      -2.34172005      -2.12741414
Cs       9.47153976       3.09871511       0.04908123       0.00000255       0.00001378      -0.00001859      -1.45923995       0.21891598      -0.72407592
Cs       9.64697940      20.64505262      24.40314779      -0.00000723      -0.00001633      -0.00000634       0.41941165       1.28774598      -1.35540910
Cs       3.31053707       3.01704423      23.64282131      -0.00002701      -0.00000023      -0.00000419      -1.69068894      -2.24988416       0.75797710
Cs       3.28234062       3.50627557      17.73983072       0.00001069      -0.00000789       0.00001287       0.42083716       0.67652221       0.25551240
Cs       9.61890149      21.13413422      18.50009857      -0.00000772       0.00000686       0.00000087      -3.05912258      -0.13348740      -0.01278355
Pb       0.20218501      18.29685053      21.04993495      -0.00000302      -0.00002452      -0.00001452      -0.57639527       0.27062093       0.55835838
Pb       6.42870664      -0.33709585      21.17941419      -0.00000696       0.00002409      -0.00001202       1.66917329      -0.93969978      -1.98426958
Pb       0.14823961      -0.32215044      21.21182366       0.00002025       0.00001539       0.00001096       0.70191821       0.54740391      -3.16055867
Pb       6.48265480      18.28192905      21.01750255       0.00001675      -0.00003398       0.00000992      -0.71379828      -1.29076548      -0.73415457
Pb       0.17105538      18.49140847      14.84559328       0.00000590       0.00000393       0.00000520      -0.39041079      -0.23372187       4.14400785
Pb       6.39756118      -0.14252881      14.97509898       0.00001860      -0.00000824       0.00000421       2.39524451       0.76308876      -3.07770142
Pb       0.11712699      -0.12757543      15.00748453      -0.00001844       0.00000261      -0.00001073       0.75429560      -0.71330209      -2.68650742
Pb       6.45152887      18.47644991      14.81320488      -0.00000641       0.00003134      -0.00001303       1.89699853       2.24365440      -1.04726295
I       24.84921139      21.34217091      21.60908811      -0.00001258       0.00003871       0.00000937       0.28482510       0.08195278      -1.83844376
I        5.94681115       2.76688386      20.44226472       0.00001753       0.00000848       0.00002162      -0.03959483       0.48507611       1.35969264
I       13.20203512       2.74918896      20.40432945      -0.00000809      -0.00001859      -0.00000072       0.12403282       1.10511526      -0.27602789
I        6.98250975      21.38428083      21.70068524      -0.00000101      -0.00000397      -0.00000325      -2.36881919       0.21149271       1.22623993
I        9.57257052       0.13922170      21.63593628      -0.00001843      -0.00000822       0.00001395       0.45276279      -2.54551967      -0.73766320
I        3.31014848       6.33857536      21.63548301       0.00001395       0.00000075       0.00000016       1.82975985       0.19910482       1.11458441
I        3.35677168      24.01190762      20.50718308       0.00002730       0.00001566      -0.00001678       0.44494637       0.75014897      -1.26328952
I        9.61920795      17.81259267      20.50739110      -0.00002674       0.00000803       0.00001306       0.34562995       0.15149767      -0.75185124
I       12.20316985       2.94762901      15.63142759       0.00001281      -0.00000579      -0.00000877       2.02621931       0.29196817       0.73720718
I        5.96965608      21.58044940      14.07619616      -0.00000105       0.00005041      -0.00001602       2.89509431      -0.88483149       0.52335572
I        0.60159603      21.98175401       1.69433419       0.00002660       0.00000432      -0.00000809      -0.89772841      -2.38117801      -0.70344740
I        6.83518599       3.34892852       3.24961615       0.00000464      -0.00004865      -0.00000910       0.97933964       1.79985247      -0.92835945
I        3.19878113       0.71594123       3.07656717       0.00006893      -0.00000912      -0.00002240      -1.26093599      -0.96490689      -0.23099080
I        9.53314279      19.34188553       2.86109139       0.00001308      -0.00001636       0.00000714       0.85665311       0.88069403       1.07167452
I        9.60605381      24.21346077      14.24928525      -0.00005085       0.00001370       0.00001580       0.67109801       0.58110236      -3.93945599
I        3.27170476       5.58752148      14.46451492      -0.00000536       0.00000455       0.00000837       0.27049113      -1.11147269       0.57678582
I       24.81442994       5.01558832      24.11621170       0.00000952       0.00001690       0.00002806      -0.57448275       1.37383778       1.77016846
I        5.95987244       0.27895696      24.30076296      -0.00000806      -0.00003280       0.00003502      -3.24047322      -1.65205323       0.55965193
I       13.23677350      19.07574858      17.89716156      -0.00002475       0.00001618      -0.00001932      -0.08098063       0.00500584      -0.03332368
I        6.96950756      23.87223853      17.84228498      -0.00000816       0.00000115      -0.00002862      -1.59151254       1.95408323       0.17304255
I       24.83737019      23.82918869      17.75009666      -0.00002782      -0.00000172       0.00000676       2.75783634      -2.05831420       1.56309351
I        5.94669049       6.67987057      18.04244203       0.00000574      -0.00001482      -0.00000097       1.28493500       1.90721219       1.51549779
I       13.21390448       0.26224522      24.26337414       0.00000120      -0.00001590      -0.00000036       3.40575886       0.43841299      -0.49174420
I        6.98268033      17.47137020      24.10048597      -0.00000561       0.00000493       0.00001553      -1.37249154       0.24900746      -0.20413531
Cs      22.09658050      14.99240315       5.77935931      -0.00001384      -0.00001873      -0.00000837       0.42395760       0.80589081       0.11693919
Cs      15.79602652       9.77720348       4.91120534      -0.00000198      -0.00002003       0.00000097       0.24996339       0.71064917       1.71450289
Cs      15.83013262       9.87707587      11.41684938       0.00001513       0.00002414       0.00000239      -1.36360059      -2.34172005      -2.12741414
Cs      22.13066450      15.09240994      12.28503924       0.00000254       0.00001378      -0.00001859      -1.45923995       0.21891598      -0.72407592
Cs      22.10970936       8.59158327      12.03761510      -0.00000722      -0.00001633      -0.00000635       0.41941165       1.28774598      -1.35540910
Cs      15.84519121      15.78892726      11.06149558      -0.00002701      -0.00000023      -0.00000420      -1.69068894      -2.24988416       0.75797710
Cs      15.81699476      16.27815860       5.15850499       0.00001069      -0.00000789       0.00001287       0.42083716       0.67652221       0.25551240
Cs      22.08163145       9.08066487       6.13456588      -0.00000772       0.00000685       0.00000087      -3.05912258      -0.13348740      -0.01278355
Pb      12.66491497       6.24338118       8.68440226      -0.00000303      -0.00002453      -0.00001452      -0.57639527       0.27062093       0.55835838
Pb      18.96336078      12.43478718       8.59808846      -0.00000697       0.00002410      -0.00001202       1.66917329      -0.93969978      -1.98426958
Pb      12.68289375      12.44973259       8.63049793       0.00002025       0.00001539       0.00001095       0.70191821       0.54740391      -3.16055867
Pb      18.94538476       6.22845970       8.65196986       0.00001674      -0.00003398       0.00000992      -0.71379828      -1.29076548      -0.73415457
Pb      12.63378534       6.43793912       2.48006059       0.00000590       0.00000393       0.00000520      -0.39041079      -0.23372187       4.14400785
Pb      18.93221532      12.62935422       2.39377325       0.00001860      -0.00000823       0.00000421       2.39524451       0.76308876      -3.07770142
Pb      12.65178113      12.64430760       2.42615880      -0.00001845       0.00000261      -0.00001073       0.75429560      -0.71330209      -2.68650742
Pb      18.91425883       6.42298056       2.44767219      -0.00000641       0.00003133      -0.00001303       1.89699853       2.24365440      -1.04726295
I       12.19008665       9.34847608       9.37313011      -0.00001258       0.00003871       0.00000936       0.28482510       0.08195278      -1.83844376
I       18.48146529      15.53876689       7.86093899       0.00001753       0.00000848       0.00002162      -0.03959483       0.48507611       1.35969264
I        0.61483456      15.58084651       7.95257840      -0.00000809      -0.00001860      -0.00000072       0.12403282       1.10511526      -0.27602789
I       19.44523971       9.33081148       9.33515255      -0.00000101      -0.00000397      -0.00000325      -2.36881919       0.21149271       1.22623993
I       22.10722466      12.91110473       9.05461055      -0.00001843      -0.00000822       0.00001395       0.45276279      -2.54551967      -0.73766320
I       15.84480262      19.11045839       9.05415728       0.00001395       0.00000075       0.00000016       1.82975985       0.19910482       1.11458441
I       15.81950164      11.95843827       8.14165039       0.00002729       0.00001566      -0.00001678       0.44494637       0.75014897      -1.26328952
I       22.08193791       5.75912332       8.14185841      -0.00002674       0.00000802       0.00001306       0.34562995       0.15149767      -0.75185124
I       24.73782399      15.71951204       3.05010186       0.00001281      -0.00000580      -0.00000877       2.02621931       0.29196817       0.73720718
I       18.43238604       9.52698005       1.71066347      -0.00000105       0.00005039      -0.00001602       2.89509431      -0.88483149       0.52335572
I       13.18879659       9.15009646      14.14608524       0.00002660       0.00000431      -0.00000809      -0.89772841      -2.38117801      -0.70344740
I       19.49431073      15.34262335      15.48557416       0.00000464      -0.00004864      -0.00000910       0.97933964       1.79985247      -0.92835945