768
Lattice="31.492301004744814 -0.28206949104554563 0.03805902897402219 0.2613687528897625 29.323178498679173 1.137630458454572 -0.015960664790186554 0.5060266827912308 16.970173836203614" Properties=species:S:1:pos:R:3:forces:R:3 energy=-3353.828967422781 stress="8.050429177493582e-09 6.26146569298613e-08 -4.429931312742711e-08 6.26146569298613e-08 -4.646347741527491e-08 4.1471623508539707e-08 -4.429931312742711e-08 4.1471623508539707e-08 2.174705975445121e-09" free_energy=-3353.828967422781 pbc="T T T"
I        6.47735220       1.47785463       2.67105533      -0.00001391       0.00000661       0.00000257
I        1.12638229       5.82957493       3.08091114      -0.00000178       0.00000083       0.00000884
I        6.61359195       1.34226411       6.82051421       0.00000432       0.00000817      -0.00000129
I        0.98216503       6.21821061       7.41654313      -0.00001564      -0.00001473       0.00000416
I        4.92817319       4.82379696       5.36253339      -0.00001627      -0.00000183      -0.00000135
I        2.66760576       2.73668640       8.87453534      -0.00001185      -0.00000450      -0.00000930
H        2.34208045       1.17919071       5.26768405      -0.00001676       0.00001366      -0.00000527
H        6.01243636       5.48818931       1.98036363       0.00001293      -0.00000725       0.00001136
H        1.59140622       1.81938697       3.77149904       0.00002255       0.00000056       0.00002080
H        5.26158994       6.12821237       0.48419605       0.00000247       0.00002026      -0.00000159
H        3.19889933       2.42447045       4.29412769       0.00000751      -0.00001338      -0.00001104
H        4.40490839       4.88300366       1.45796419      -0.00001477      -0.00000092      -0.00000130
H        1.40393472       3.99266733       4.83950147      -0.00000230      -0.00000540      -0.00000882
H        6.97588791       4.49798719      -0.01308206       0.00002697       0.00000554       0.00000503
H        2.10243504       3.39744843       6.25505705      -0.00001371      -0.00000447      -0.00001443
H        5.50122206       3.90990176      -0.50300902      -0.00000448      -0.00001562      -0.00002261
H        0.62779754       2.80941869       5.76497837       0.00001814       0.00002054       0.00000054
H        6.19983107       3.31478986       0.91253201      -0.00001137      -0.00000156       0.00001104
C        2.22275603       2.06141746       4.63078002       0.00000386      -0.00001772      -0.00001621
C        5.38100515       5.24605238       1.12117383       0.00001773      -0.00002856      -0.00001400
Pb       4.65327242      14.79149048       9.64744768       0.00000876       0.00000158       0.00000506
Pb       0.71741776      14.90950731       9.68239674       0.00001690       0.00000868       0.00001430
N        1.55278305       3.13616162       5.41656307      -0.00000762       0.00002065       0.00003927
N        6.05093289       4.17125473       0.33542172      -0.00003177       0.00003265       0.00002577
I        5.08614739       8.94819096       7.19633357       0.00000011       0.00000190      -0.00000389
I        2.64022839      13.27387404       7.60956431       0.00000680       0.00000863      -0.00000163
I        4.94554707       8.56211473       2.86033222      -0.00002848       0.00001935      -0.00000589
I        2.78886929      13.40693389       3.46045462       0.00000816      -0.00000952       0.00000755
I        6.69661254      12.01284989       1.40645179      -0.00000143       0.00000119      -0.00000144
I        1.03779093       9.95618236       4.91434326       0.00002582       0.00000909      -0.00000264
H        0.50419770       9.90645582       8.81761008      -0.00002018       0.00000055       0.00001555
H        5.62454680      12.94965453       6.50668270       0.00000194      -0.00002516      -0.00000518
H        2.10187864       9.27247995       8.29916195      -0.00000321       0.00001722       0.00000114
H        7.22222284      12.31569194       5.98819710      -0.00000015      -0.00001385       0.00000229
H        1.33601203       8.64614212       9.79350644       0.00000323       0.00000341      -0.00001114
H        6.39034241      13.57594255       5.01228296      -0.00001316       0.00001187      -0.00001971
H        1.61303125      10.85984023      10.78125595      -0.00001664      -0.00000604       0.00001041
H        4.64829241      11.97664418       4.51100828       0.00000524      -0.00000255       0.00000303
H        2.32559535      11.44226064       9.36739597       0.00000343      -0.00002584       0.00000299
H        5.40080054      10.77983345       5.43856391      -0.00000829      -0.00000978       0.00000404
H        3.07809412      10.24539193      10.29488347       0.00001149       0.00000630       0.00000912
H        6.11335276      11.36216365       4.02466450       0.00000411       0.00002133       0.00000802
C        1.47279499       9.52597243       9.15679778       0.00001793      -0.00000992       0.00002019
C        6.25360168      12.69613687       5.64903319      -0.00000503       0.00000334       0.00002632
Pb       3.07315373       7.43055825       5.15841910       0.00000636      -0.00000018      -0.00001292
Pb       7.00899810       7.31259016       5.12351626       0.00001085       0.00000172      -0.00001353
N        2.15998400      10.58863024       9.94415328      -0.00000270      -0.00000741      -0.00003139
N        5.56640599      11.63342872       4.86175297       0.00002682       0.00000782      -0.00002883
I       14.35049758       1.40735844       2.68062017      -0.00001313       0.00000713       0.00000006
I        8.99942461       5.75910587       3.09046922      -0.00000927      -0.00000715      -0.00000529
I       14.48660462       1.27176450       6.83005727       0.00000593      -0.00000499       0.00000650
I        8.85523385       6.14774986       7.42612126       0.00001450      -0.00001362      -0.00000141
I       12.80120919       4.75326844       5.37204734      -0.00002327       0.00000420       0.00000564
I       10.54066396       2.66619727       8.88413191       0.00000181       0.00000009      -0.00000035
H       10.21510695       1.10875574       5.27747660      -0.00000449       0.00002184      -0.00001427
H       13.88553437       5.41776056       1.98984131      -0.00000331      -0.00001500      -0.00000046
H        9.46423451       1.74872679       3.78130006       0.00001762       0.00000096      -0.00001241
H       13.13459857       6.05768115       0.49367462       0.00001157       0.00000064       0.00000594
H       11.07181946       2.35385847       4.30359883       0.00000497      -0.00000072      -0.00000856
H       12.27800558       4.81248666       1.46754089      -0.00001365       0.00001360       0.00000553
H        8.50091450       2.73910182       5.77471008       0.00000932       0.00000367      -0.00002818
H       14.07293492       3.24430519       0.92211243       0.00000377       0.00001518      -0.00001570
H        9.27699554       3.92220096       4.84898775      -0.00000384      -0.00000426       0.00001753
H       14.84895158       4.42748046      -0.00356506       0.00002184      -0.00000759      -0.00000399
H        9.97562515       3.32715591       6.26454526       0.00001160      -0.00000254       0.00000370
H       13.37428972       3.83933690      -0.49343987      -0.00000405       0.00001444      -0.00000377
C       10.09571517       1.99088425       4.64044854       0.00001078      -0.00001815       0.00000641
C       13.25407405       5.17555637       1.13069111      -0.00000074       0.00001331      -0.00000803
Pb      12.52634387      14.72102102       9.65705181      -0.00000608      -0.00000570      -0.00001018
Pb       8.59050596      14.83899543       9.69193143      -0.00000710      -0.00001076       0.00001491
N        9.42587378       3.06576796       5.42615323      -0.00003974      -0.00000041       0.00001269
N       13.92400890       4.10074368       0.34496812      -0.00000844      -0.00002756       0.00001704
I       12.95929101       8.87766679       7.20580707       0.00001639       0.00001445       0.00000527
I       10.51337674      13.20337789       7.61913037      -0.00000321       0.00000125       0.00001815
I       12.81858957       8.49161697       2.86984751      -0.00002412       0.00000502      -0.00000951
I       10.66192544      13.33645904       3.47004906       0.00000223       0.00000927       0.00000478
I       14.56966747      11.94234618       1.41597395      -0.00000503      -0.00000911      -0.00000095
I        8.91087673       9.88571353       4.92394827       0.00000978      -0.00000168      -0.00000843
H        8.37733513       9.83587294       8.82717677       0.00002728      -0.00000922       0.00001337
H       13.49774204      12.87888781       6.51640344       0.00000309       0.00000624       0.00001401
H        9.97505948       9.20189897       8.30885238       0.00001506       0.00001955      -0.00001748
H       15.09540697      12.24515725       5.99760540       0.00001102       0.00000418       0.00000424
H        9.20914309       8.57566070       9.80320963      -0.00000528       0.00000839      -0.00001063
H       14.26330146      13.50551886       5.02202229       0.00000384      -0.00000010      -0.00000966
H       10.95113916      10.17497836      10.30456897       0.00000042       0.00000789      -0.00001034
H       12.52135794      11.90618307       4.52061227      -0.00001753       0.00000524      -0.00001613
H        9.48603660      10.78948041      10.79076874      -0.00001158      -0.00002197       0.00002034
H       13.27399024      10.70927650       5.44793322      -0.00000204      -0.00002232       0.00001310
H       10.19870665      11.37175926       9.37690985      -0.00001572      -0.00003935       0.00003308
H       13.98641290      11.29186350       4.03405965      -0.00001458      -0.00001664       0.00002324
C        9.34593003       9.45544501       9.16643811      -0.00005932      -0.00001508       0.00000267
C       14.12671334      12.62558579       5.65862974      -0.00001485      -0.00001739      -0.00000367
Pb      10.94622862       7.36007522       5.16795930      -0.00000061      -0.00001388       0.00000298
Pb      14.88207456       7.24201778       5.13297238      -0.00000003       0.00001150      -0.00000197
N       10.03305321      10.51818318       9.95373924       0.00004540       0.00004539      -0.00004473
N       13.43951384      11.56296244       4.87123774       0.00004985       0.00002451      -0.00001905
I        6.46937187       1.73086797      11.15614225      -0.00001390       0.00000661       0.00000257
I        1.11840196       6.08258827      11.56599806      -0.00000178       0.00000084       0.00000884
I        6.60561162       1.59527745      15.30560113       0.00000432       0.00000818      -0.00000130
I        0.97418470       6.47122395      15.90163005      -0.00001566      -0.00001473       0.00000416
I        4.92019286       5.07681030      13.84762031      -0.00001627      -0.00000183      -0.00000136
I        2.67558609       2.48367306       0.38944842      -0.00001185      -0.00000451      -0.00000929
H        2.33410012       1.43220405      13.75277097      -0.00001676       0.00001366      -0.00000527
H        6.00445603       5.74120265      10.46545055       0.00001293      -0.00000724       0.00001136
H        1.58342589       2.07240031      12.25658596       0.00002255       0.00000056       0.00002080
H        5.25360961       6.38122571       8.96928297       0.00000247       0.00002026      -0.00000159
H        3.19091900       2.67748379      12.77921461       0.00000751      -0.00001338      -0.00001104
H        4.39692806       5.13601700       9.94305111      -0.00001477      -0.00000092      -0.00000130
H        1.39595439       4.24568067      13.32458839      -0.00000230      -0.00000540      -0.00000882
H        6.96790758       4.75100053       8.47200486       0.00002704       0.00000555       0.00000503
H        2.09445471       3.65046177      14.74014397      -0.00001371      -0.00000447      -0.00001443
H        5.49324173       4.16291510       7.98207790      -0.00000438      -0.00001560      -0.00002246
H        0.61981721       3.06243203      14.25006529       0.00001814       0.00002054       0.00000054
H        6.19185074       3.56780320       9.39761893      -0.00001136      -0.00000156       0.00001103
C        2.21477570       2.31443080      13.11586694       0.00000386      -0.00001771      -0.00001621
C        5.37302482       5.49906572       9.60626075       0.00001773      -0.00002856      -0.00001399
Pb       4.66125275      14.53847714       1.16236076       0.00000876       0.00000158       0.00000507
Pb       0.72539809      14.65649397       1.19730982       0.00001690       0.00000866       0.00001429
N        1.54480272       3.38917496      13.90164999      -0.00000762       0.00002066       0.00003926
N        6.04295256       4.42426807       8.82050864      -0.00003195       0.00003262       0.00002563
I        5.07816706       9.20120430      15.68142049       0.00000011       0.00000191      -0.00000389
I        2.63224806      13.52688738      16.09465123       0.00000680       0.00000863      -0.00000164
I        4.93756674       8.81512807      11.34541914      -0.00002848       0.00001935      -0.00000589
I        2.78088896      13.65994723      11.94554154       0.00000816      -0.00000952       0.00000754
I        6.68863221      12.26586323       9.89153871      -0.00000143       0.00000119      -0.00000144
I        1.02981060      10.20919570      13.39943018       0.00002583       0.00000911      -0.00000264
H        0.51217803       9.65344248       0.33252316      -0.00002034       0.00000062       0.00001547
H        5.61656647      13.20266787      14.99176962       0.00000194      -0.00002516      -0.00000518
H        2.10985897       9.01946661      -0.18592497      -0.00000324       0.00001723       0.00000113
H        7.21424251      12.56870528      14.47328402      -0.00000015      -0.00001385       0.00000229
H        1.34399236       8.39312878       1.30841952       0.00000324       0.00000341      -0.00001113
H        6.38236208      13.82895589      13.49736988      -0.00001316       0.00001187      -0.00001971
H        1.62101158      10.60682689       2.29616903      -0.00001664      -0.00000604       0.00001041
H        4.64031208      12.22965752      12.99609520       0.00000524      -0.00000255       0.00000303
H        2.33357568      11.18924730       0.88230905       0.00000343      -0.00002584       0.00000299
H        5.39282021      11.03284679      13.92365083      -0.00000829      -0.00000978       0.00000404
H        3.08607445       9.99237859       1.80979655       0.00001149       0.00000630       0.00000911
H        6.10537243      11.61517699      12.50975142       0.00000411       0.00002133       0.00000802
C        1.48077532       9.27295909       0.67171086       0.00001812      -0.00001001       0.00002026
C        6.24562135      12.94915021      14.13412011      -0.00000503       0.00000334       0.00002632
Pb       3.06517340       7.68357159      13.64350602       0.00000636      -0.00000019      -0.00001292
Pb       7.00101777       7.56560350      13.60860318       0.00001085       0.00000172      -0.00001353
N        2.16796433      10.33561690       1.45906636      -0.00000269      -0.00000741      -0.00003138
N        5.55842566      11.88644206      13.34683989       0.00002682       0.00000782      -0.00002883
I       14.34251725       1.66037178      11.16570709      -0.00001312       0.00000712       0.00000005
I        8.99144428       6.01211921      11.57555614      -0.00000927      -0.00000715      -0.00000529
I       14.47862429       1.52477784      15.31514419       0.00000593      -0.00000499       0.00000649
I        8.84725352       6.40076320      15.91120818       0.00001450      -0.00001363      -0.00000141
I       12.79322886       5.00628178      13.85713426      -0.00002327       0.00000420       0.00000564
I       10.54864429       2.41318393       0.39904499       0.00000182       0.00000009      -0.00000034
H       10.20712662       1.36176908      13.76256352      -0.00000449       0.00002184      -0.00001427
H       13.87755404       5.67077390      10.47492823      -0.00000331      -0.00001500      -0.00000045
H        9.45625418       2.00174013      12.26638698       0.00001762       0.00000096      -0.00001241
H       13.12661824       6.31069449       8.97876154       0.00001157       0.00000064       0.00000594
H       11.06383913       2.60687181      12.78868575       0.00000497      -0.00000072      -0.00000856
H       12.27002525       5.06550000       9.95262781      -0.00001365       0.00001360       0.00000553
H        8.49293417       2.99211516      14.25979700       0.00000932       0.00000368      -0.00002818
H       14.06495459       3.49731853       9.40719935       0.00000378       0.00001518      -0.00001571
H        9.26901521       4.17521430      13.33407467      -0.00000384      -0.00000426       0.00001753
H       14.84097125       4.68049380       8.48152186       0.00002192      -0.00000759      -0.00000400
H        9.96764482       3.58016925      14.74963218       0.00001160      -0.00000254       0.00000370
H       13.36630939       4.09235024       7.99164705      -0.00000396       0.00001446      -0.00000362
C       10.08773484       2.24389759      13.12553546       0.00001078      -0.00001815       0.00000641
C       13.24609372       5.42856971       9.61577803      -0.00000074       0.00001331      -0.00000802
Pb      12.53432420      14.46800768       1.17196489      -0.00000608      -0.00000571      -0.00001017
Pb       8.59848629      14.58598209       1.20684451      -0.00000710      -0.00001077       0.00001491
N        9.41789345       3.31878130      13.91124015      -0.00003975      -0.00000041       0.00001268
N       13.91602857       4.35375702       8.83005504      -0.00000863      -0.00002759       0.00001690
I       12.95131068       9.13068013      15.69089399       0.00001639       0.00001445       0.00000528
I       10.50539641      13.45639123      16.10421729      -0.00000320       0.00000125       0.00001815
I       12.81060924       8.74463031      11.35493443      -0.00002412       0.00000502      -0.00000951
I       10.65394511      13.58947238      11.95513598       0.00000223       0.00000927       0.00000478
I       14.56168714      12.19535952       9.90106087      -0.00000503      -0.00000911      -0.00000095
I        8.90289640      10.13872687      13.40903519       0.00000978      -0.00000168      -0.00000843
H        8.38531546       9.58285960       0.34208985       0.00002711      -0.00000914       0.00001329
H       13.48976171      13.13190115      15.00149036       0.00000309       0.00000624       0.00001401
H        9.98303981       8.94888563      -0.17623454       0.00001503       0.00001956      -0.00001748
H       15.08742664      12.49817059      14.48269232       0.00001102       0.00000418       0.00000424
H        9.21712342       8.32264736       1.31812271      -0.00000528       0.00000839      -0.00001062
H       14.25532113      13.75853220      13.50710921       0.00000383      -0.00000010      -0.00000966
H       10.95911949       9.92196502       1.81948205       0.00000042       0.00000789      -0.00001034
H       12.51337761      12.15919641      13.00569919      -0.00001753       0.00000524      -0.00001613
H        9.49401693      10.53646707       2.30568182      -0.00001158      -0.00002197       0.00002034
H       13.26600991      10.96228984      13.93302014      -0.00000204      -0.00002232       0.00001310
H       10.20668698      11.11874592       0.89182293      -0.00001571      -0.00003935       0.00003307
H       13.97843257      11.54487684      12.51914657      -0.00001458      -0.00001664       0.00002324
C        9.35391036       9.20243167       0.68135119      -0.00005913      -0.00001516       0.00000275
C       14.11873301      12.87859913      14.14371666      -0.00001485      -0.00001739      -0.00000367
Pb      10.93824829       7.61308856      13.65304622      -0.00000061      -0.00001388       0.00000298
Pb      14.87409423       7.49503112      13.61805930      -0.00000003       0.00001152      -0.00000197
N       10.04103354      10.26516984       1.46865232       0.00004540       0.00004539      -0.00004472
N       13.43153351      11.81597578      13.35632466       0.00004985       0.00002451      -0.00001905
I        6.60803658      16.13944388       3.23987056      -0.00001391       0.00000661       0.00000256
I        1.25706667      20.49116418       3.64972637      -0.00000178       0.00000083       0.00000884
I        6.74427633      16.00385336       7.38932944       0.00000432       0.00000817      -0.00000129
I        1.11284941      20.87979986       7.98535836      -0.00001564      -0.00001473       0.00000416
I        5.05885757      19.48538621       5.93134862      -0.00001627      -0.00000183      -0.00000135
I        2.79829014      17.39827565       9.44335057      -0.00001186      -0.00000451      -0.00000930
H        2.47276483      15.84077996       5.83649928      -0.00001676       0.00001366      -0.00000527
H        6.14312074      20.14977856       2.54917886       0.00001293      -0.00000724       0.00001136
H        1.72209060      16.48097622       4.34031427       0.00002255       0.00000056       0.00002080
H        5.39227432      20.78980162       1.05301128       0.00000247       0.00002026      -0.00000160
H        3.32958371      17.08605970       4.86294292       0.00000751      -0.00001338      -0.00001104
H        4.53559277      19.54459291       2.02677942      -0.00001477      -0.00000092      -0.00000130
H        1.53461910      18.65425658       5.40831670      -0.00000230      -0.00000540      -0.00000882
H        7.10657228      19.15957644       0.55573317       0.00002723       0.00000562       0.00000493
H        2.23311942      18.05903768       6.82387228      -0.00001371      -0.00000447      -0.00001443
H        5.63190643      18.57149101       0.06580621      -0.00000435      -0.00001559      -0.00002247
H        0.75848192      17.47100794       6.33379360       0.00001815       0.00002055       0.00000054
H        6.33051545      17.97637911       1.48134724      -0.00001137      -0.00000156       0.00001104
C        2.35344041      16.72300671       5.19959525       0.00000386      -0.00001772      -0.00001622
C        5.51168953      19.90764163       1.68998906       0.00001773      -0.00002855      -0.00001398
Pb       4.78395680      29.45307973      10.21626291       0.00000875       0.00000158       0.00000506
Pb       0.84810214      29.57109656      10.25121197       0.00001690       0.00000868       0.00001429
N        1.68346743      17.79775087       5.98537830      -0.00000762       0.00002065       0.00003927
N        6.18161727      18.83284398       0.90423695      -0.00003218       0.00003253       0.00002572
I        5.21683177      23.60978021       7.76514880       0.00000011       0.00000190      -0.00000389
I        2.77091277      27.93546329       8.17837954       0.00000680       0.00000863      -0.00000163
I        5.07623145      23.22370398       3.42914745      -0.00002848       0.00001935      -0.00000589
I        2.91955367      28.06852314       4.02926985       0.00000816      -0.00000952       0.00000754
I        6.82729692      26.67443914       1.97526702      -0.00000144       0.00000119      -0.00000144
I        1.16847531      24.61777161       5.48315849       0.00002583       0.00000909      -0.00000264
H        0.63488208      24.56804507       9.38642531      -0.00002018       0.00000055       0.00001555
H        5.75523118      27.61124378       7.07549793       0.00000194      -0.00002516      -0.00000518
H        2.23256302      23.93406920       8.86797718      -0.00000321       0.00001722       0.00000114
H        7.35290722      26.97728119       6.55701233      -0.00000015      -0.00001385       0.00000229
H        1.46669641      23.30773137      10.36232167       0.00000323       0.00000341      -0.00001115
H        6.52102679      28.23753180       5.58109819      -0.00001316       0.00001187      -0.00001971
H        1.74371563      25.52142948      11.35007118      -0.00001664      -0.00000604       0.00001041
H        4.77897679      26.63823343       5.07982351       0.00000524      -0.00000255       0.00000303
H        2.45627973      26.10384989       9.93621120       0.00000343      -0.00002584       0.00000299
H        5.53148492      25.44142270       6.00737914      -0.00000829      -0.00000978       0.00000404
H        3.20877850      24.90698118      10.86369870       0.00001149       0.00000630       0.00000912
H        6.24403714      26.02375290       4.59347973       0.00000411       0.00002133       0.00000802
C        1.60347937      24.18756168       9.72561301       0.00001793      -0.00000992       0.00002019
C        6.38428606      27.35772612       6.21784842      -0.00000503       0.00000334       0.00002632
Pb       3.20383811      22.09214750       5.72723433       0.00000636      -0.00000018      -0.00001292
Pb       7.13968248      21.97417941       5.69233149       0.00001085       0.00000172      -0.00001353
N        2.29066838      25.25021949      10.51296851      -0.00000270      -0.00000740      -0.00003140
N        5.69709037      26.29501797       5.43056820       0.00002682       0.00000782      -0.00002883
I       14.48118196      16.06894769       3.24943540      -0.00001313       0.00000713       0.00000006
I        9.13010899      20.42069512       3.65928445      -0.00000927      -0.00000715      -0.00000529
I       14.61728900      15.93335375       7.39887250       0.00000592      -0.00000499       0.00000649
I        8.98591823      20.80933911       7.99493649       0.00001449      -0.00001363      -0.00000141
I       12.93189357      19.41485769       5.94086257      -0.00002327       0.00000420       0.00000564
I       10.67134834      17.32778652       9.45294714       0.00000180       0.00000008      -0.00000035
H       10.34579133      15.77034499       5.84629183      -0.00000449       0.00002184      -0.00001427
H       14.01621875      20.07934981       2.55865654      -0.00000331      -0.00001499      -0.00000045
H        9.59491889      16.41031604       4.35011529       0.00001762       0.00000096      -0.00001241
H       13.26528295      20.71927040       1.06248985       0.00001157       0.00000064       0.00000594
H       11.20250384      17.01544772       4.87241406       0.00000497      -0.00000072      -0.00000856
H       12.40868996      19.47407591       2.03635612      -0.00001365       0.00001360       0.00000553
H        8.63159888      17.40069107       6.34352531       0.00000932       0.00000367      -0.00002818
H       14.20361930      17.90589444       1.49092766       0.00000378       0.00001518      -0.00001570
H        9.40767992      18.58379021       5.41780298      -0.00000384      -0.00000426       0.00001753
H       14.97963595      19.08906971       0.56525017       0.00002210      -0.00000752      -0.00000410
H       10.10630953      17.98874516       6.83336049       0.00001160      -0.00000254       0.00000370
H       13.50497409      18.50092615       0.07537536      -0.00000392       0.00001447      -0.00000363
C       10.22639955      16.65247350       5.20926377       0.00001078      -0.00001815       0.00000641
C       13.38475843      19.83714562       1.69950634      -0.00000074       0.00001331      -0.00000800
Pb      12.65702825      29.38261027      10.22586704      -0.00000609      -0.00000571      -0.00001017
Pb       8.72119034      29.50058468      10.26074666      -0.00000711      -0.00001077       0.00001490
N        9.55655816      17.72735721       5.99496846      -0.00003974      -0.00000041       0.00001269
N       14.05469328      18.76233293       0.91378335      -0.00000885      -0.00002768       0.00001699
I       13.08997539      23.53925604       7.77462230       0.00001639       0.00001445       0.00000528
I       10.64406112      27.86496714       8.18794560      -0.00000320       0.00000125       0.00001815
I       12.94927395      23.15320622       3.43866274      -0.00002412       0.00000502      -0.00000951
I       10.79260982      27.99804829       4.03886429       0.00000223       0.00000927       0.00000478
I       14.70035185      26.60393543       1.98478918      -0.00000503      -0.00000911      -0.00000095
I        9.04156111      24.54730278       5.49276350       0.00000978      -0.00000168      -0.00000843
H        8.50801951      24.49746219       9.39599200       0.00002728      -0.00000922       0.00001337
H       13.62842642      27.54047706       7.08521867       0.00000309       0.00000624       0.00001401
H       10.10574386      23.86348822       8.87766761       0.00001505       0.00001955      -0.00001748
H       15.22609135      26.90674650       6.56642063       0.00001102       0.00000418       0.00000424
H        9.33982747      23.23724995      10.37202486      -0.00000529       0.00000839      -0.00001063
H       14.39398584      28.16710811       5.59083752       0.00000383      -0.00000010      -0.00000966
H       11.08182354      24.83656761      10.87338420       0.00000043       0.00000789      -0.00001034
H       12.65204232      26.56777232       5.08942750      -0.00001753       0.00000524      -0.00001613
H        9.61672098      25.45106966      11.35958397      -0.00001158      -0.00002197       0.00002034
H       13.40467462      25.37086575       6.01674845      -0.00000204      -0.00002232       0.00001310