768
Lattice="32.02500273337611 -0.3383098033004087 0.23372914800987352 0.251727044973982 30.907294753182846 0.327696953363583 -0.36516376636284514 -0.12791612959087437 17.646268719176913" Properties=species:S:1:pos:R:3:forces:R:3 energy=-3660.1147108893824 stress="0.003085186493608721 2.0016822662006814e-05 -9.11437480366877e-05 2.0016822662006814e-05 0.0017042441083364528 -4.021804163337847e-05 -9.11437480366877e-05 -4.021804163337847e-05 0.0019391063896705254" free_energy=-3660.1147108893824 pbc="T T T"
H        3.26423161       1.45672451       8.02518445       0.00000618      -0.00001102       0.00000432
H        2.91553173      -0.71025926       8.74057558      -0.00000189      -0.00000542      -0.00000703
H        3.28271027      -1.41127243       7.16221667       0.00000755      -0.00000496       0.00000250
H        3.87601781       0.24337121       5.35575411       0.00000375       0.00000856      -0.00000221
H        3.86422026       1.92268793       5.82666146       0.00000209       0.00001180       0.00000363
H        6.82370790       1.68605001      12.34768932      -0.00000504      -0.00000454      -0.00000212
H        7.83061797       3.93095671       4.18286294       0.00000057      -0.00001353       0.00000340
H        7.61388355       4.53469892       2.54910164       0.00000176       0.00000585       0.00000414
H        7.56715728       2.74784618       0.73189693       0.00000414       0.00000439       0.00001796
H        7.78397530       1.11114193       1.28848329       0.00000720      -0.00000260       0.00000886
C        3.38292193       0.63151420       7.31585747      -0.00000550       0.00001478      -0.00002268
C        7.81248217       2.49709817       2.76707849       0.00000451       0.00000561       0.00002163
N        3.15386030      -0.58433316       7.75446015      -0.00000192      -0.00001466       0.00001174
N        3.75688419       0.93854538       6.09472780      -0.00000407      -0.00001564       0.00000923
N        7.75384489       3.74078193       3.18300800      -0.00001134      -0.00000385      -0.00000990
N        7.70830410       2.10769595       1.51729369      -0.00000771       0.00000347      -0.00002088
Pb       6.41549954      28.62197556       3.22104762       0.00000133       0.00000535       0.00000335
Pb       2.41101331      28.64866669       3.14125964      -0.00000097       0.00000203       0.00000583
I        8.47028670      30.10933386       5.22858044      -0.00000001       0.00000454       0.00000060
I        3.91886954       4.34722146       4.83082081      -0.00000636      -0.00000684      -0.00000927
I        7.11834705      29.50919932       9.59492732      -0.00000777      -0.00000678       0.00000421
I        3.94105498       4.09474163       9.28408194       0.00000387       0.00000146      -0.00000037
I        7.87970270       2.88780777       6.81966328       0.00000368      -0.00000083      -0.00000153
I        4.20510642       0.28287186       2.48093338      -0.00000150       0.00000315      -0.00000221
H        3.41345559       6.99036210       3.84464836       0.00000458      -0.00001628      -0.00000394
H        3.44128374       9.14752273       4.68274967       0.00000079      -0.00000154       0.00000350
H        3.19746523       9.88386071       3.09740654       0.00001241       0.00000267       0.00000157
H        4.06481500       8.20939730      10.01172187       0.00000219      -0.00000765       0.00000297
H        3.90911801       6.51586434      10.39834156       0.00000709       0.00000179       0.00000171
H        7.36157308       9.40386003       6.58546332       0.00000130      -0.00001259      -0.00000162
H        7.84194530       8.84433344       8.78950494       0.00000635      -0.00001086      -0.00000526
H        7.81363650      10.49711954       9.34186348       0.00000039      -0.00000601      -0.00000596
H        7.33193007      12.23794071       7.55845202       0.00000131      -0.00000181      -0.00000639
H       31.01864732      11.34578936       6.11482337      -0.00000944       0.00001329      -0.00000988
C        3.28615831       7.83654313       3.16225749       0.00000025      -0.00002793      -0.00002068
C        7.43817024      10.19801470       7.33533475       0.00000209       0.00000129       0.00002957
N        3.30434364       9.04336877       3.67574720       0.00000214       0.00001605       0.00002229
N        3.91268237       7.48886586      10.72041285      -0.00000369      -0.00000134       0.00000093
N        7.73696524       9.83893819       8.56345908      -0.00000866       0.00000631      -0.00000323
N        7.23786138      11.43130923       6.93342143      -0.00000067       0.00000975      -0.00000425
Pb       5.93360936       5.47815451       7.10026086       0.00000267       0.00000723       0.00000139
Pb       1.96140210       5.53696764       7.14322002      -0.00000123       0.00001320       0.00000506
I        7.92950560       6.34843783       9.57252276       0.00000869       0.00000996       0.00000624
I        4.15350754      11.48202830       9.84484992      -0.00000275       0.00000255      -0.00000301
I        8.02003766       6.93800560       5.12051047      -0.00000212       0.00000785      -0.00000759
I        3.06682834      12.32706551       5.40127520      -0.00001088      -0.00000463      -0.00000917
I        7.02365824      10.65122655       3.31695834      -0.00000350      -0.00000351       0.00000307
I        4.01467466       8.11547381       7.15444572      -0.00000381      -0.00000121      -0.00000130
H       11.38788481      -0.89908986       6.26499360      -0.00000740       0.00001616       0.00001433
H       11.95802989       1.17871639       5.41699663       0.00001163       0.00000416      -0.00001264
H       11.79172087       1.97993892       6.98050401       0.00000229       0.00001861       0.00001750
H       11.08021213       0.50742965       8.89050919      -0.00000277       0.00001213       0.00000773
H       10.87094771      -1.18290840       8.51143590       0.00001281       0.00000089      -0.00000079
H       15.04072733       1.75031263      12.49046949      -0.00000402       0.00000131      -0.00001282
H       15.95817629       1.00979974       1.49021728      -0.00000438      -0.00000352       0.00000572
H       15.71226044       2.62779359       0.89723434       0.00000673      -0.00000990       0.00000308
H       15.76052290       4.46047538       2.67742512      -0.00000481       0.00000902       0.00000653
H       16.00737081       3.89198339       4.32094161       0.00000760      -0.00000049       0.00000920
C       11.39818013      -0.03047553       6.92975854       0.00000173      -0.00002725      -0.00000550
C       15.99528996       2.43103423       2.93573288       0.00000913      -0.00001603       0.00002375
N       11.74896690       1.12517469       6.41632650      -0.00001013      -0.00000590       0.00001035
N       11.07068199      -0.23224729       8.18593016      -0.00000330      -0.00000870      -0.00002892
N       15.88035126       2.01047403       1.69684210      -0.00000030       0.00001114      -0.00001416
N       15.92522165       3.68262307       3.32500129      -0.00000247       0.00000353      -0.00000557
Pb      14.41303182      28.57536702       3.30562953       0.00000369       0.00000474      -0.00000113
Pb      10.43910441      28.61669703       3.17952872      -0.00000946       0.00000573      -0.00000597
I       16.49705209      30.01746903       5.33081189      -0.00001281       0.00000677       0.00000827
I       11.98233753       4.47673061       4.80056779      -0.00000292       0.00000056      -0.00000288
I       15.15542289      29.63418552       9.73814917       0.00000473      -0.00001259      -0.00000046
I       11.84814988       3.63286100       9.15021081       0.00000134      -0.00000598       0.00000505
I       16.05370150       2.82192139       6.96958312       0.00001193       0.00000164      -0.00001070
I       12.22286322       0.29855950       2.87127405      -0.00000441       0.00000011      -0.00000434
H       11.14295451       9.13843246       2.10837130       0.00000498      -0.00002682       0.00000558
H       11.20002588       6.97784592       1.29414380      -0.00001072       0.00000601      -0.00001260
H       11.47431008       6.26155485       2.88338960       0.00000197       0.00000369       0.00000994
H       11.31495634       7.89874432      13.61668028       0.00000020       0.00000938       0.00000038
H       11.63023001       9.55099104      13.16306563      -0.00000335      -0.00000610      -0.00000339
H       15.27833299       9.33988716       6.66099980      -0.00000160       0.00003279       0.00001470
H       15.71400830       8.72731435       8.85977533      -0.00000362      -0.00000189      -0.00001179
H       15.71870941      10.36697145       9.44528726       0.00000362       0.00000034       0.00000511
H       15.30179322      12.15694169       7.68550405       0.00000050       0.00002243       0.00001762
H        7.05096507      11.60221423       5.94413206       0.00000138      -0.00000439       0.00000438
C       11.30693939       8.30667205       2.80210747      -0.00001097       0.00005502      -0.00002798
C       15.36288445      10.11810581       7.42665816       0.00000400      -0.00001998      -0.00001949
N       11.31667589       7.09254221       2.30277265       0.00000625      -0.00001851       0.00001062
N       11.52041498       8.57223573      12.87603650       0.00000312       0.00000552       0.00000022
N       15.63163881       9.72708608       8.65223431      -0.00000146      -0.00000889      -0.00000850
N       15.20103449      11.36320820       7.04478907       0.00000431      -0.00002905       0.00000923
Pb      13.95674417       5.27714868       7.25839105      -0.00002001      -0.00000662       0.00001154
Pb       9.93196957       5.36273295       7.16591274       0.00000294      -0.00000335      -0.00000008
I       15.90280487       6.22477177       9.74463082      -0.00000238       0.00000052      -0.00000006
I       12.16702970      11.71545715       9.71531450       0.00000528      -0.00000892      -0.00000141
I       15.94082152       6.87237517       5.28196257       0.00001275       0.00000890      -0.00001368
I       11.06528587      11.98316151       5.34760124      -0.00000342      -0.00000255      -0.00000334
I       14.98103565      10.57060932       3.39911245      -0.00000117      -0.00000264       0.00000092
I       11.99963790       7.86449590       7.63353262      -0.00000240      -0.00000503      -0.00000007
H        3.44371393       1.39973337      16.85049296       0.00000482      -0.00000204      -0.00000035
H        3.78963548      -0.76228284      17.58283461      -0.00000815      -0.00000567       0.00000714
H        3.51106112      -1.46786406      15.98801497       0.00000222      -0.00000187       0.00000203
H        2.98854600       0.17934515      14.15273416      -0.00000274      -0.00000235      -0.00000769
H        2.94553182       1.85759926      14.62474115       0.00000397      -0.00001250      -0.00000640
H        7.96081683       1.71828201       3.52351862       0.00000872       0.00000864       0.00000552
H        6.89054045       3.90785958      12.99468204      -0.00000014      -0.00000945      -0.00000686
H        7.21201132       4.49694786      11.37274113      -0.00000600      -0.00000428      -0.00000260
H        7.37139647       2.70040175       9.57722558       0.00000453       0.00000523      -0.00000792
H        7.13811107       1.06481421      10.13152058       0.00000014       0.00000013       0.00000356
C        3.37361802       0.57317297      16.13610473       0.00000733      -0.00000152       0.00002554
C        7.00884346       2.46123786      11.59570749       0.00000207      -0.00003167      -0.00002380
N        3.59798519      -0.63944761      16.58612101      -0.00000287       0.00001885      -0.00000615
N        3.05923809       0.87551061      14.89713666      -0.00000551       0.00000924      -0.00000767
N        7.02991904       3.70885924      12.00359064       0.00000421       0.00001739       0.00001076
N        7.19415440       2.06343165      10.35771234      -0.00000263       0.00001684       0.00001920
Pb       5.04487204      28.56607787      11.96968454       0.00000618      -0.00000148       0.00000224
Pb       1.03072054      28.61460687      12.00056551       0.00000180       0.00000704       0.00000173
I        6.94506898      30.05921255      14.05514985       0.00000600       0.00000173      -0.00000663
I        2.82603942       4.29319105      13.63852141      -0.00000825       0.00000149       0.00000095
I        8.37882225      29.56065027       0.77602554      -0.00000039       0.00000079      -0.00000878
I        3.15217874       4.16843388       0.44806653      -0.00000090      -0.00000798      -0.00000444
I        6.71334474       2.86245221      15.64058618       0.00000939      -0.00000222       0.00000030
I        2.78559773       0.23379020      11.27646793      -0.00000159      -0.00000688      -0.00000126
H        3.49798178       6.91213005      12.65132252      -0.00000100       0.00000563       0.00000085
H        3.45221799       9.06457930      13.50235003      -0.00000402       0.00000821       0.00000691
H        3.80416087       9.80589240      11.93988993      -0.00000376      -0.00000432      -0.00001050
H        3.03392533       8.27604041       1.16548994      -0.00000755      -0.00000579       0.00000285
H        3.14286930       6.58365936       1.57193851       0.00000188       0.00002497       0.00000041
H        7.60738084       9.36959603      15.41230078      -0.00000478       0.00000684       0.00000094
H        7.03130515       8.82254623      17.59568716       0.00000258      -0.00001186       0.00000894
H        7.06146352      10.47629523      18.14567700      -0.00001072      -0.00001121      -0.00001004
H        7.65437518      12.20291913      16.38449901       0.00001517       0.00001406       0.00001246
H       31.96530798      11.28287512      14.97551088       0.00001567      -0.00001312      -0.00000245
C        3.68225605       7.76041879      11.98502246       0.00000156      -0.00000741       0.00000251
C        7.51539274      10.16623887      16.15755649       0.00001510       0.00000128      -0.00000405
N        3.64644357       8.96436268      12.50447343       0.00000533      -0.00000036      -0.00001189
N        3.13413028       7.55899147       1.88704369      -0.00001576      -0.00000944       0.00000947
N        7.15963821       9.81479479      17.37268474      -0.00000391       0.00002889       0.00001332
N        7.75558292      11.39462159      15.76350795       0.00000757      -0.00002451      -0.00002108
Pb       4.79466548       5.44595158      15.95157839       0.00000002       0.00000448      -0.00000133
Pb       0.81968662       5.45489383      15.90508825       0.00000753       0.00000099      -0.00000127
I        7.21840434       6.45123832       0.72388047       0.00000317       0.00000521      -0.00000922
I        2.97861202      11.56600649       0.99878611       0.00000109       0.00000865       0.00000828
I        6.86851953       6.90654149      13.95417276      -0.00000429      -0.00000721       0.00000282
I        4.00676611      12.25086359      14.25133212      -0.00000342       0.00000548      -0.00000751
I        8.11100787      10.57257774      12.15955732      -0.00000518       0.00000180      -0.00000485
I        2.78992513       8.05933920      15.96104976      -0.00000475       0.00000124       0.00000183
H       11.39309434      -0.86932037      14.96929758      -0.00000002       0.00000181      -0.00000176
H       10.82081691       1.28286448      14.36102976       0.00000085       0.00000786       0.00000025
H       10.94242036       1.90754623      16.00587665      -0.00000010      -0.00000878      -0.00000069
H       11.64292468       0.20898021      17.75587836      -0.00001461      -0.00000479      -0.00000342
H       11.86151085      -1.41618284      17.18104004       0.00001483       0.00000626       0.00001151
H       16.16124987       1.67246536       3.70858015      -0.00000494       0.00000326      -0.00001664
H       16.89476653       1.86888355      11.06858432      -0.00000567       0.00000694       0.00001334
H       16.46185297       3.46869117      10.49298710       0.00000047       0.00000878      -0.00000097
H       14.47237065       4.50838869      11.47897526       0.00000212       0.00000501       0.00000078
H       13.56212840       3.57074628      12.64010637      -0.00000373      -0.00000711      -0.00000370
C       11.36096230      -0.08644233      15.73239960      -0.00000298      -0.00001876      -0.00000591
C       15.20524273       2.64538814      11.88104469      -0.00000281      -0.00000422       0.00001364
N       11.00783254       1.11853320      15.35142589       0.00000254       0.00000968      -0.00000660
N       11.66606999      -0.43520905      16.96142187       0.00000372       0.00000400       0.00000063
N       16.24475846       2.65830170      11.07671223       0.00000056      -0.00000380      -0.00001180
N       14.34974617       3.63536950      11.99710829       0.00000633       0.00001114      -0.00000584
Pb      13.05333717      28.64012617      12.03051929       0.00000510       0.00000041      -0.00000666
Pb       9.05961097      28.58312697      12.08848455       0.00000970       0.00000338       0.00000152
I       15.02760311      30.04115250      14.14724673      -0.00000366       0.00000606      -0.00000839
I       10.91267084       4.38757726      13.60052072      -0.00000005       0.00000697       0.00000204
I       16.43300224      29.46091915       0.87842073      -0.00000584       0.00000022      -0.00001168
I       11.08306687       3.77526585       0.37113896      -0.00000533       0.00000607      -0.00000605
I       14.77141260       2.72647359      15.84634420       0.00000107      -0.00000472       0.00001246
I       10.74398400       0.29312730      11.76299740       0.00000686      -0.00001313      -0.00000053
H       11.90576317       9.04425306      10.90993041       0.00000474       0.00000543      -0.00001095
H       11.71100909       6.88271801      10.13159545       0.00000460      -0.00000190       0.00000254
H       11.37329162       6.21013964      11.72976583       0.00000613       0.00001846      -0.00000463
H       11.63822477       7.90529367       4.79492130      -0.00000281       0.00000028      -0.00000361
H       11.42515114       9.58399540       4.37284522      -0.00000321      -0.00001386      -0.00000272
H       15.53515953       9.26468386      15.48647669      -0.00000235       0.00000477       0.00000773
H       14.94583311       8.70870114      17.66453555       0.00000814       0.00001034      -0.00000135
H       14.98537642      10.35843605      18.22418952      -0.00000793       0.00000091       0.00000410
H       15.58889630      12.09318901      16.47469016      -0.00000393      -0.00000268      -0.00000374
H        7.99083242      11.56213747      14.78418615      -0.00000896       0.00000819       0.00001151
C       11.68302428       8.23816074      11.61748527       0.00000213       0.00000695       0.00000805
C       15.44402769      10.05774850      16.23565895       0.00000537      -0.00002765      -0.00003411
N       11.59635496       7.01850524      11.13839998      -0.00001089      -0.00002639       0.00000166
N       11.48168607       8.60624686       4.06819622       0.00000714       0.00001691       0.00002668
N       15.07829777       9.70171932      17.44640669      -0.00001353      -0.00000698       0.00002397
N       15.69387674      11.28741769      15.85051939       0.00001082       0.00002207      -0.00001331
Pb      12.84026009       5.27166467      16.10893950       0.00000074      -0.00000746       0.00000554
Pb       8.81800373       5.33792549      15.98438098      -0.00000039      -0.00001091      -0.00000044
I       15.20337195       6.35397840       0.84535566      -0.00000151      -0.00000275      -0.00000105
I       10.99930857      11.81794665       0.87371218       0.00000649      -0.00000154       0.00000213
I       14.77286203       6.79155321      14.06023264      -0.00000107      -0.00000192       0.00000182
I       12.01364879      11.92239086      14.18556146      -0.00000156      -0.00000443       0.00000377
I       16.04476313      10.48570717      12.24091466       0.00000061       0.00000073      -0.00000005
I       10.79817144       7.85529110      16.41323743      -0.00000195       0.00000521       0.00000046
H        3.75614911      16.92128349       8.18574190       0.00000070       0.00000803       0.00000595
H        4.07762024      14.75731221       8.92346461       0.00000375      -0.00001053      -0.00000246
H        3.78719877      14.05079924       7.33116419       0.00000340       0.00001685       0.00001293
H        3.27695466      15.69852684       5.49337378      -0.00000186       0.00001169      -0.00000282
H        3.25674345      17.37903987       5.96044620      -0.00000173       0.00000700      -0.00000557
H        7.97067675      17.12428252      12.53090126       0.00000316       0.00001123      -0.00001677
H        7.23448664      19.43980455       4.35756524       0.00000122       0.00000147       0.00002276
H        7.57609023      20.02151305       2.73744543      -0.00000373       0.00000089      -0.00000007
H        7.72063087      18.21979966       0.94550382      -0.00000235       0.00001773      -0.00000972
H        7.45200250      16.58981121       1.49878029      -0.00000281       0.00001963       0.00000797
C        3.67407761      16.09362823       7.47389182      -0.00000892       0.00001282      -0.00003306
C        7.33625137      17.98989293       2.96101278      -0.00001939       0.00005062       0.00004627
N        3.88488201      14.87963911       7.92685714       0.00000566      -0.00002890      -0.00000223
N        3.35981059      16.39618979       6.23499552       0.00001064      -0.00000351       0.00001317
N        7.37505055      19.23733318       3.36738372       0.00000561      -0.00003610      -0.00003213
N        7.52548028      17.58701433       1.72503288       0.00000638      -0.00005945      -0.00002119
Pb       5.05190959      13.18827247       2.97674130       0.00000977      -0.00000027       0.00000142
Pb       1.03851991      13.22813506       3.00665843       0.00000713      -0.00000255      -0.00000136
I        6.96448182      14.67542555       5.06163454      -0.00000398      -0.00000276       0.00000114
I        3.16399708      19.81447013       4.98878378      -0.00000528      -0.00000494      -0.00000446
I        8.05117986      14.04538464       9.44036440       0.00000214      -0.00000703       0.00000386
I        3.10471953      19.55309556       9.44699034      -0.00000437       0.00000091       0.00000590
I        7.04832433      18.38838952       7.00399446       0.00000057       0.00000371      -0.00000048
I        3.04518404      15.75905123       2.61352044      -0.00000956       0.00000253      -0.00000198
H        3.83960296      22.42132762       3.99184779      -0.00000953      -0.00000894      -0.00000368
H        3.77104009      24.56998244       4.85141210       0.00000624      -0.00000332      -0.00000340
H        4.13066547      25.31988441       3.29473889      -0.00000763      -0.00001206       0.00000636
H        3.00399036      23.66236389      10.16246613       0.00000204       0.00000175      -0.00000321
H        3.11474945      21.96888433      10.56446405      -0.00000270       0.00000596      -0.00000158
H        7.95797498      24.88569345       6.76512905       0.00000516      -0.00000870       0.00000289
H        7.38295076      24.34821671       8.95189439      -0.00000168      -0.00000062       0.00000346
H        7.42699261      26.00334811       9.49672817       0.00000097       0.00000206      -0.00000351
H        8.02459189      27.72098508       7.72974189      -0.00000027      -0.00000522      -0.00000970
H       32.29590387      26.79506261       6.32223370      -0.00000372       0.00000199       0.00000395
C        4.02387057      23.27372508       3.33073612       0.00001042      -0.00000023      -0.00001517
C        7.87420236      25.68485415       7.50862793      -0.00001162      -0.00000277       0.00000528
N        3.97330139      24.47525067       3.85449026      -0.00000405       0.00001901       0.00000392
N        3.11122577      22.94368295      10.88137326      -0.00000105      -0.00001273      -0.00000805
N        7.52090932      25.33868449       8.72599750       0.00000499      -0.00000370      -0.00000442
N        8.12067475      26.91073324       7.11049347      -0.00000435       0.00001115       0.00001855
Pb       5.12667957      20.96838030       7.32004257       0.00001109      -0.00000988      -0.00000104
Pb       1.15314717      20.96876771       7.24914998      -0.00000700       0.00000001       0.00000448
I        7.15328899      21.85626748       9.74545647       0.00000250      -0.00000221       0.00000723
I        2.96111701      26.94748233       9.99322362      -0.00000715       0.00000747      -0.00000394
I        7.18886474      22.43460443       5.32102374      -0.00000210       0.00000577       0.00000248
I        4.34563160      27.76093875       5.59473816      -0.00000360       0.00000274       0.00000118
I        8.44235942      26.08768794       3.50135210       0.00000124      -0.00000334      -0.00000312
I        3.11178791      23.57690737       7.31108905       0.00000209       0.00000356      -0.00000179
H       11.68859401      14.63591876       6.32361240       0.00000517      -0.00000624      -0.00001125
H       11.16504789      16.78189455       5.64627570      -0.00000539       0.00000275      -0.00000152
H       11.26464702      17.44535762       7.27754990       0.00000484      -0.00001048      -0.00000403
H       11.89645758      15.78631531       9.08387031      -0.00000215      -0.00000055      -0.00000047
H       12.10467964      14.14167342       8.55784397      -0.00000548      -0.00000022      -0.00000231
H       16.07690345      17.04082194      12.61661295      -0.00000489      -0.00000340       0.00000324
H       15.52796931      16.48874889       1.58763763      -0.00000249       0.00001560       0.00001116
H       15.80763680      18.11009325       1.01667660      -0.00001021      -0.00002209       0.00001123
H       15.65219862      19.93631756       2.78501401      -0.00000486      -0.00002325       0.00000622
H       15.29817488      19.37541902       4.40878545       0.00000389       0.00000444       0.00001252
C       11.65244378      15.43941360       7.06468924       0.00000180       0.00002830       0.00001965
C       15.40321743      17.90703388       3.03154112      -0.00000088       0.00002733       0.00001270
N       11.32914983      16.63970248       6.64422940       0.00000193      -0.00000860      -0.00001180
N       11.92345031      15.11884965       8.30959452       0.00000875      -0.00000274      -0.00001153
N       15.60340958      17.48809108       1.80301908       0.00000341      -0.00001622      -0.00003802
N       15.44284448      19.15982151       3.42216632       0.00000217       0.00001290      -0.00002038
Pb      13.04148730      13.14026280       3.05822878       0.00000978       0.00000165       0.00000294
Pb       9.06061960      13.19590538       3.08268918       0.00000447       0.00000478       0.00000771
I       15.00904084      14.58711480       5.14268433      -0.00000054       0.00000141       0.00000363
I       11.17319295      19.95859131       4.95649538      -0.00000055       0.00000000       0.00000098
I       16.09010478      13.98935756       9.52234303      -0.00000146       0.00000214      -0.00000672
I       11.08238348      19.15373194       9.33883977      -0.00000331      -0.00001410       0.00001087
I       15.14106930      18.27769152       7.07064975       0.00000035      -0.00000393      -0.00001017
I       11.05980608      15.77278241       3.06325348       0.00000131       0.00000393       0.00000565
H       12.30137208      24.55220553       2.26350236      -0.00000311       0.00000026       0.00000852
H       12.22821933      22.38108272       1.48192836       0.00000156      -0.00000827      -0.00001086
H       11.85965842      21.69789980       3.06671240      -0.00000471      -0.00000482       0.00000872
H       11.62193325      23.33935649      13.77991286       0.00000539       0.00000363       0.00000603
H       11.42411193      25.01361306      13.33407235       0.00000026       0.00000095       0.00000386
H       15.85899642      24.94764114       6.78851689      -0.00000089      -0.00001435      -0.00000630
H       15.27054741      24.18933124       8.91251073      -0.00000297       0.00000386       0.00001134
H       15.26005291      25.78585135       9.60689525       0.00000658       0.00000858      -0.00001271
H       15.80152131      27.68466399       8.01892261      -0.00000226      -0.00000185      -0.00000986
H        8.35217848      27.07458996       6.12967886       0.00000734       0.00001024       0.00000366
C       12.08415412      23.73646737       2.96162049      -0.00000313       0.00000407      -0.00001609
C       15.73317258      25.66912170       7.60188117      -0.00000032      -0.00000100       0.00000138
N       12.07211130      22.51426687       2.48268414       0.00000506       0.00000021       0.00000762
N       11.47662785      24.03130861      13.04228603      -0.00000550      -0.00000635      -0.00000927
N       15.37493577      25.19934858       8.77556880      -0.00000270       0.00000225       0.00000332
N       15.93947102      26.93613900       7.32855684       0.00000621      -0.00000155       0.00000158