96
Lattice="15.749691226765163 -0.11286314988631578 0.15807395986032102 0.07123002351556479 14.892385539029618 0.3222451061895229 0.14973095834573272 -0.11493549589296859 8.535578692458653" Properties=species:S:1:pos:R:3:forces:R:3 energy=-419.1534967180593 stress="0.0012156517502860164 -7.257659278155175e-05 -3.0646682865425946e-05 -7.257659278155175e-05 0.0021410931831059576 0.00018343576990902653 -3.0646682865425946e-05 0.00018343576990902653 0.0014328055961430207" free_energy=-419.1534967180593 pbc="T T T"
I        5.31091435       1.45320441       4.16109463       0.00001180       0.00000418      -0.00000435
I        3.06672052       6.33277757       3.37331802      -0.00000899       0.00000112      -0.00001180
I        5.52632568       1.60416030       8.34854982       0.00000923      -0.00000502       0.00001357
I        3.00106307       6.06693694       7.72145171      -0.00000122      -0.00000485       0.00001551
I        7.00561004       5.00006778       5.51974270       0.00000494      -0.00001217       0.00000404
I        1.52171200       2.67100716      10.55023614      -0.00000958       0.00001658       0.00001242
H        0.83598884       2.68366455       6.70205408       0.00001605      -0.00000152      -0.00000971
H        6.72340311       6.45765205       1.68411674      -0.00000584      -0.00000701       0.00000411
H        1.65426655       1.32839655       5.85017935      -0.00000773      -0.00003001      -0.00001254
H        7.54181538       5.10232755       0.83246561       0.00000435      -0.00001848      -0.00001576
H        2.42995268       2.09165407       7.27812129       0.00001491       0.00000032      -0.00000216
H        5.94788486       5.69421026       0.25617750       0.00000020       0.00000824       0.00000721
H        3.40316596       2.86255097       5.18180795      -0.00000343       0.00000609      -0.00001055
H        6.43980088       4.34147177       2.87682929      -0.00001375       0.00001026       0.00000568
H        2.66995495       4.14243962       6.00765931      -0.00001129       0.00001847       0.00000401
H        5.70778182       3.64357488       1.52680957      -0.00000177       0.00000057      -0.00000749
H        1.93787352       3.44463870       4.65762804      -0.00001127      -0.00000767      -0.00000832
H        4.97453148       4.92351626       2.35254238       0.00001177      -0.00001393      -0.00000123
C        1.80072529       2.26390837       6.40017040      -0.00003319       0.00004301       0.00001560
C        6.57703267       5.52207581       1.13420934      -0.00001632       0.00001671      -0.00000557
Pb       3.63262172      15.02192860      10.73919458       0.00000432      -0.00000945       0.00000390
Pb      -0.30407975      14.97605981      10.70013527      -0.00000172      -0.00000590      -0.00001941
N        2.49112437       3.24298050       5.51042820       0.00001682      -0.00001600       0.00001028
N        5.88658834       4.54306795       2.02398679      -0.00000205      -0.00000528       0.00002045
I        6.96038302       9.01459702       7.81746959      -0.00000386      -0.00000232       0.00000613
I        1.63818540      13.54890379       8.57475651      -0.00001110      -0.00000739      -0.00000415
I        7.01727943       8.91259008       3.46617544       0.00000523      -0.00000087      -0.00000334
I        1.43159676      13.76580207       4.39046980      -0.00000893       0.00000311       0.00001583
I        5.34611005      12.52027081       2.26732479      -0.00001232       0.00000623      -0.00000254
I        3.10269335      10.15810352       5.58931411      -0.00002091      -0.00000262       0.00001587
H        2.17734945       9.56577138       8.82546478      -0.00001679      -0.00000960      -0.00001936
H        5.64651636      13.84248826       6.18477223      -0.00000868      -0.00001540       0.00000085
H        3.78366804      10.10530585       9.41811834       0.00000319      -0.00000319       0.00000733
H        4.81470589      12.45827887       6.97401080      -0.00001937      -0.00001958       0.00001142
H        2.95212575       8.72107366      10.20760310      -0.00001173       0.00001719      -0.00001185
H        6.42102907      12.99753452       7.56690264       0.00001012       0.00001309       0.00001505
H        1.97424925      11.55267678      10.19808748       0.00001050       0.00000119      -0.00001415
H        5.88933019      11.78247612       4.88645313      -0.00001179      -0.00000597      -0.00001596
H        2.70913649      10.78110369      11.50577004      -0.00002081       0.00001399      -0.00002854
H        6.62413582      11.01079963       6.19412139       0.00001388      -0.00002413       0.00002064
H        1.23114794      10.24431483      10.96789893      -0.00000370      -0.00000517      -0.00000163
H        7.36732579      12.31915820       5.42440262       0.00000902       0.00001465       0.00000020
C        2.81505351       9.68490445       9.70619894       0.00003021      -0.00001030       0.00001186
C        5.78340718      12.87858414       6.68608414       0.00003042       0.00001705      -0.00003873
Pb       4.96595451       7.54155538       5.65302577       0.00000368      -0.00000428      -0.00000410
Pb       8.90264072       7.58740391       5.69212900       0.00000245      -0.00000144      -0.00001409
N        2.14583333      10.62791482      10.64937641       0.00001208      -0.00000297       0.00003506
N        6.45260930      11.93559129       5.74287524      -0.00000161       0.00000576       0.00001067
I       13.18570256       1.39677589       4.24016610      -0.00000572       0.00000839       0.00001424
I       10.94158149       6.27630912       3.45236174      -0.00000182      -0.00000755       0.00000840
I       13.40116798       1.54766549       8.42761067      -0.00000441      -0.00000735       0.00000551
I       10.87579665       6.01048402       7.80048799      -0.00000213      -0.00000991      -0.00000512
I       14.88049569       4.94359673       5.59884973      -0.00000084       0.00000036       0.00000313
I        9.39655839       2.61452764      10.62929344       0.00001313       0.00001307      -0.00001145
H        9.52900290       1.27192237       5.92930793       0.00000355       0.00002123       0.00000907
H       13.82234217       5.63795482       0.33546380       0.00001142      -0.00000985       0.00000179
H       10.30470155       2.03524189       7.35721223       0.00000474       0.00000118      -0.00001058
H       14.59825468       6.40110465       1.76333873       0.00000443      -0.00001163      -0.00001749
H        8.71072500       2.62721376       6.78114720      -0.00002759       0.00002250      -0.00001159
H       15.41637416       5.04586294       0.91126466       0.00000450      -0.00000644       0.00001467
H        9.81258510       3.38810914       4.73666358      -0.00002074       0.00000598      -0.00001597
H       12.84936563       4.86693199       2.43179197       0.00003283      -0.00001319      -0.00000343
H       11.27788956       2.80608893       5.26087501       0.00001427      -0.00001427      -0.00000604
H       14.31471487       4.28486658       2.95584637      -0.00000834      -0.00000798      -0.00000430
H       10.54464011       4.08599122       6.08667042       0.00001002      -0.00000571      -0.00001796
H       13.58254049       3.58706914       1.60586464       0.00001279      -0.00000483      -0.00001364
C        9.67545975       2.20745744       6.47926344       0.00004066      -0.00003084      -0.00003189
C       14.45169374       5.46562768       1.21331228      -0.00000411       0.00001697      -0.00000134
Pb      11.50746302      14.96544245      10.81824963       0.00000729      -0.00001007       0.00000100
Pb       7.57076256      14.91960004      10.77910093       0.00000312      -0.00000938       0.00000770
N       10.36583727       3.18650579       5.58947641      -0.00000727       0.00001266       0.00006347
N       13.76139075       4.48652512       2.10309447      -0.00003512       0.00001887       0.00002299
I       14.83520775       8.95806275       7.89659234      -0.00000537       0.00000316      -0.00001253
I        9.51306177      13.49242984       8.65375389      -0.00000274       0.00000720       0.00001763
I       14.89210902       8.85610347       3.54527879       0.00002133       0.00000187      -0.00000324
I        9.30636908      13.70933879       4.46948492       0.00000392      -0.00000323       0.00000112
I       13.22100691      12.46382335       2.34641165      -0.00000144       0.00001457       0.00000267
I       10.97756999      10.10164227       5.66833462       0.00001217      -0.00000242      -0.00000447
H       10.05239225       9.50927482       8.90444240       0.00000380      -0.00000022       0.00000772
H       14.29593745      12.94113472       7.64586603       0.00001342       0.00000805       0.00000176
H       11.65866757      10.04882968       9.49719488      -0.00000139      -0.00001204       0.00001265
H       13.52142709      13.78592006       6.26363064      -0.00000532       0.00001440       0.00000535
H       10.82708459       8.66459895      10.28663987      -0.00000160      -0.00000420       0.00001075
H       12.68965870      12.40174403       7.05297088       0.00000094       0.00000918       0.00000878
H       10.58399511      10.72464831      11.58476632      -0.00000483       0.00000191      -0.00001581
H       14.49912927      10.95425840       6.27325260       0.00001047      -0.00000316       0.00000818
H        9.10604534      10.18783325      11.04681041       0.00001144       0.00001347       0.00002363
H       15.24235251      12.26258341       5.50349726      -0.00001516       0.00000398      -0.00001379
H        9.84917883      11.49619292      10.27702675      -0.00000400      -0.00000871       0.00000229
H       13.76439646      11.72584645       4.96548987      -0.00001477      -0.00000161       0.00000263
C       10.69003797       9.62842306       9.78521818      -0.00001672       0.00002196      -0.00004003
C       13.65834991      12.82207064       6.76503763      -0.00002978      -0.00001892       0.00000202
Pb      12.84078591       7.48505121       5.73211500      -0.00000131       0.00000771      -0.00001688
Pb      16.77749680       7.53092571       5.77122198       0.00000359       0.00000264      -0.00001725
N       10.02074726      10.57143904      10.72834075       0.00000203      -0.00000900       0.00001071
N       14.32762277      11.87902156       5.82193623       0.00003123       0.00001592       0.00000460
