96
Lattice="12.271247496615853 0.01536524974672518 -0.018481485618492305 -0.038206176454842616 12.432930473974064 -0.015443533276110111 0.01043913195426931 0.005324060078104207 12.74456171112176" Properties=species:S:1:pos:R:3:forces:R:3 energy=-419.0720389983498 stress="0.0011211314432880758 0.0017508737199390574 -2.0820156587397343e-05 0.0017508737199390574 0.0024382543947455665 -2.874152654110601e-05 -2.0820156587397343e-05 -2.874152654110601e-05 0.002440543589170816" free_energy=-419.0720389983498 pbc="T T T"
I        8.27585980      -0.54475081       1.94457391       0.00000735       0.00000552       0.00000830
I        7.12386192      11.34390355       8.30302645      -0.00001006       0.00000008       0.00001350
I        8.54064045       8.51971908       4.87112449      -0.00000097      -0.00000229       0.00000084
I        6.85897133       2.27938574       5.37646768       0.00001557      -0.00000060       0.00000294
I        1.86987147      12.16059124       8.31072535       0.00000811      -0.00000596       0.00000222
I       13.52976926      -1.36142573       1.93693123      -0.00000180      -0.00000961      -0.00001449
I       14.69537699       2.31093780       4.86960473      -0.00001280      -0.00000980       0.00000462
I        0.70424444       8.48816806       5.37800785       0.00000406       0.00001112       0.00000919
I       10.76100459      12.51628279      11.19860869       0.00000556      -0.00000327      -0.00000729
I        4.64015344       6.28944620       5.41139273       0.00002521       0.00000895       0.00000176
I        4.64298274      -1.71451480       4.85327224      -0.00000722       0.00000310      -0.00000455
I       10.75669883      12.51360222       5.39438486       0.00000115       0.00001071       0.00001084
H        5.42107382       1.05854422       2.84512756       0.00000136      -0.00000585       0.00000832
H       11.96077563       1.50488588       1.03719991      -0.00001196      -0.00001326      -0.00001811
H       10.04414345       6.85247587       1.93184905      -0.00000039       0.00000400      -0.00000242
H        3.86198493       3.51627051       7.41947535      -0.00000664       0.00001292      -0.00001939
H        3.43819973       9.29100800       7.41107551       0.00000960       0.00000449       0.00000923
H       12.36455497       3.00558169       1.93401961      -0.00001647      -0.00000652       0.00000508
H        9.59359983       3.08544152       9.20891636       0.00000283       0.00000880      -0.00001097
H        3.86578153       3.51647801       9.21864944       0.00001101       0.00000305      -0.00000743
H        5.41724691       1.05829019       1.04595326       0.00000157       0.00001626      -0.00000580
H       11.96142513       1.50814532       2.83656022      -0.00000336      -0.00001027       0.00004146
H       11.53765937       7.28273493       2.82811678      -0.00000450      -0.00001561       0.00000044
H        5.35540073       3.94662114       8.31586618      -0.00000307       0.00000651       0.00000116
H        3.83835843       2.88523071       2.78969679      -0.00000342       0.00001104       0.00000239
H       10.16492594       7.47597528       8.30192233      -0.00000617      -0.00000590       0.00000309
H        9.95166567       9.10926939       1.09044642       0.00001186      -0.00001917       0.00000029
H        3.95311152       9.26728358       2.77639519      -0.00000269      -0.00000075       0.00000333
H        3.83513222       2.88504508       1.10737404       0.00001582      -0.00000351       0.00000266
H       11.56448219       7.91394967       9.14027071       0.00000208       0.00000687       0.00001377
H       11.35126058       9.54721401       1.92874533       0.00000293       0.00001607      -0.00000320
H        3.54079026       7.85792805       1.93895130      -0.00001791      -0.00002010       0.00000292
H        5.23470719       3.32302073       1.94569283       0.00000748       0.00001214       0.00000391
H        9.69561571       1.64910852       1.93743667      -0.00000842      -0.00000412      -0.00001524
H        9.95492221       9.10942702       2.77276677      -0.00002003      -0.00000121       0.00001454
H        3.95244434       9.26450331       1.09631285       0.00001583      -0.00000918       0.00000999
C        3.64120570       8.70533663       8.31176211       0.00001140      -0.00000460      -0.00002703
C       11.75845866       2.09384412       1.93588434      -0.00000930       0.00002600      -0.00003360
C        9.79593303       2.49651958       8.31021090      -0.00000839      -0.00001652       0.00000683
C        4.45480036       3.32394161       8.31783290       0.00001356      -0.00001386       0.00004285
Pb       7.69982532       5.39954235       5.12381208      -0.00001529       0.00001246       0.00000214
Pb       7.68074675      11.61602649       5.11607281      -0.00001358      -0.00000422       0.00000272
Pb       1.55033257      11.61101366      11.49762352      -0.00001415      -0.00000241       0.00000103
Pb       1.54511154      11.60833180       5.12534698       0.00000530       0.00000095      -0.00000493
N        4.41496091       2.68211214       1.94745937       0.00000447      -0.00000436       0.00000138
N       10.98466840       8.11689125       8.30018022       0.00000058       0.00001161      -0.00001599
N       10.53150649       8.90631437       1.93051645       0.00000737      -0.00001231      -0.00001460
N        4.16532556       8.69050640       1.93721134       0.00001720       0.00001251      -0.00001191
I        8.02457825       5.95177734       8.30920123       0.00000938       0.00000328      -0.00000239
I        7.37502466       4.84732568       1.93844105       0.00000876      -0.00001286      -0.00000736
I        6.86397841       2.28140873      11.25372033       0.00000175      -0.00000771       0.00000193
I        8.53565244       8.51774149      -1.00605363      -0.00000492      -0.00000640       0.00000098
I        2.12113210       5.66403039       1.94610926      -0.00000319      -0.00000068      -0.00000208
I       13.27856436       5.13511413       8.30152485      -0.00000576       0.00000220      -0.00000224
I       12.97005433       8.50023011      -1.50779945       0.00000866       0.00000030      -0.00000159
I        2.42954950       2.29891434      11.75547936       0.00000206      -0.00001018      -0.00001645
I       10.75948418       4.50965427       4.83630229      -0.00000120      -0.00000269      -0.00001060
I        4.60046167      10.71581859      -0.96643036       0.00001541      -0.00000386      -0.00001385
I        4.64447174       6.29211400      11.21554316       0.00000421      -0.00000096      -0.00001025
I       10.75518100       4.50701527      -0.96799286      -0.00000485       0.00000294       0.00001543
H        3.43890374       9.29431160       9.21043922       0.00000209       0.00000072       0.00000661
H       11.47198577      10.17074103       8.29896372       0.00001371       0.00000736      -0.00000283
H        9.18986627       1.58476257       8.31204310      -0.00000798       0.00000898       0.00000385
H        5.80591917       7.71359925       1.03866067      -0.00000844      -0.00000416       0.00000663
H        3.92761590       0.62827053       1.94877186       0.00000474       0.00000513      -0.00000010
H        9.97859063       9.74047409       7.40249988      -0.00001065       0.00000683      -0.00001152
H       11.53372185       7.28249025       1.02894081       0.00001817       0.00000088      -0.00000173
H        6.20981493       9.21422307       1.93555204      -0.00000551       0.00001508      -0.00000423
H        3.03513280       7.79358453       8.31366248      -0.00000674      -0.00001212       0.00001238
H        9.98230377       9.74066579       9.20167513       0.00001826       0.00000732      -0.00001444
H        9.59295247       3.08224088       7.40955138      -0.00000330      -0.00000033       0.00000362
H        5.80658653       7.71677073       2.83802302       0.00001033      -0.00000086       0.00001235
H        5.70404156       9.15011800       8.31015754      -0.00000883      -0.00001160       0.00001014
H       10.10720417       3.05568255       1.09476236      -0.00001550      -0.00000164      -0.00000531
H       11.44657902       1.53191439       7.47122703      -0.00000894      -0.00000827      -0.00000185
H        4.04847748       1.25179209       8.31886761      -0.00000820       0.00000127       0.00000641
H        5.29182653       7.74070537       7.47276051      -0.00000178      -0.00002045      -0.00000881
H       10.10783755       3.05851221       2.77484450      -0.00000493       0.00000549       0.00001223
H       11.44721776       1.53471171       9.15130692      -0.00000055      -0.00001269       0.00000803
H        5.44802121       1.68983085       9.15720480      -0.00000607       0.00000781       0.00000026
H        5.29250497       7.74353485       9.15283923      -0.00000516      -0.00001700       0.00001231
H       11.56128626       7.91378817       7.45795088       0.00001288       0.00000761      -0.00000554
H       11.85876576       2.94131262       8.30866291      -0.00001137      -0.00001351      -0.00000225
H        5.44480811       1.68967940       7.47488254       0.00001563      -0.00001446      -0.00001277
C        4.82825725       1.25089144       1.94677431      -0.00001093       0.00000623      -0.00002281
C       10.57135429       9.54810716       8.30088385      -0.00001638      -0.00002237       0.00002980
C       10.94478969       7.47508922       1.92979986      -0.00002114       0.00002455      -0.00000967
C        5.60365473       8.30252877       1.93737668      -0.00000184       0.00001480       0.00000230
Pb       7.68597269      11.61871489      11.48836584      -0.00001981      -0.00000412       0.00000305
Pb       7.70505069       5.40223822      11.49610501      -0.00001222      -0.00000784      -0.00000352
Pb       1.56421532       5.39188416       5.13305548      -0.00000880      -0.00000721      -0.00000511
Pb       1.56943306       5.39456448      11.50533910      -0.00000008       0.00000081       0.00000976
N        5.07957048       8.31748968       8.31192773      -0.00000038       0.00003900      -0.00001669
N       10.32010206       2.48172381       1.93568196       0.00005032      -0.00001060       0.00001317
N       11.23429917       2.10868063       8.31040035       0.00002858       0.00002953      -0.00000383
N        4.86818862       1.89274729       8.31712006      -0.00001008       0.00001655       0.00001185
